                         Program Version 6.0.1  -  RELEASE   -
|  1> ! B3LYP def2-SVP TightSCF NumFreq
|  2> %maxcore 2000
|  3> %output
|  4>   PrintLevel 5
|  5> end
|  6> * xyz 0 1
|  7> C    0.000000    0.000000    0.000000
|  8> O    1.200000    0.000000    0.000000
|  9> O   -1.200000    0.000000    0.000000
| 10> *
| 11>
| 12>
| 13>                          ****END OF INPUT****

CARTESIAN COORDINATES (ANGSTROEM)
---------------------------------
  C      0.000000    0.000000    0.000000
  O      1.200000    0.000000    0.000000
  O     -1.200000    0.000000    0.000000

 Total Charge           Charge          ....    0
 Multiplicity           Mult            ....    1
 Number of Electrons    NEL             ....   22
 Basis Dimension        Dim             ....   42

ORBITAL ENERGIES
----------------

  NO   OCC          E(Eh)            E(eV)
   0   2.0000     -19.222586      -523.0732
   1   2.0000     -19.222505      -523.0710
   2   2.0000     -10.388947      -282.6976
   3   2.0000      -1.130990       -30.7758
   4   2.0000      -1.091953       -29.7136
   5   2.0000      -0.557171       -15.1614
   6   2.0000      -0.512892       -13.9565
   7   2.0000      -0.504028       -13.7153
   8   2.0000      -0.504028       -13.7153
   9   2.0000      -0.369073       -10.0430
  10   2.0000      -0.369073       -10.0430
  11   0.0000       0.008377         0.2279
  12   0.0000       0.008377         0.2279
  13   0.0000       0.046626         1.2688
  14   0.0000       0.343952         9.3594
  15   0.0000       0.421651        11.4737

------------------
MOLECULAR ORBITALS (RHF, ROHF)
------------------
                      0         1         2         3         4         5
                 -19.22259 -19.22251 -10.38895  -1.13099  -1.09195  -0.55717
                   2.00000   2.00000   2.00000   2.00000   2.00000   2.00000
                  --------  --------  --------  --------  --------  --------
  0C   1s         0.000000  0.000766 -0.988324  0.192322  0.000000 -0.177901
  0C   2s         0.000000  0.000038 -0.048676 -0.382944 -0.000000  0.427311
  0C   3s         0.000000  0.010489  0.004234 -0.032132 -0.000000  0.084122
  0C   1pz        0.000000  0.000000 -0.000000  0.000000  0.000000  0.000000
  0C   1px       -0.000152  0.000000  0.000000  0.000000 -0.334134 -0.000000
  0C   1py        0.000000 -0.000000 -0.000000  0.000000 -0.000000  0.000000
  0C   2pz       -0.000000 -0.000000  0.000000 -0.000000  0.000000  0.000000
  0C   2px       -0.025235  0.000000  0.000000 -0.000000 -0.060271  0.000000
  0C   2py        0.000000  0.000000  0.000000  0.000000 -0.000000  0.000000
  0C   1dz2       0.000000  0.002239  0.003169  0.021247  0.000000 -0.004308
  0C   1dxz       0.000000  0.000000 -0.000000  0.000000 -0.000000 -0.000000
  0C   1dyz      -0.000000 -0.000000  0.000000 -0.000000 -0.000000 -0.000000
  0C   1dx2y2    -0.000000 -0.003878 -0.005489 -0.036802 -0.000000  0.007462
  0C   1dxy       0.000000  0.000000 -0.000000  0.000000  0.000000 -0.000000
  1O   1s         0.698976 -0.699059  0.000016 -0.176278 -0.193441 -0.125147
  1O   2s        -0.031474  0.029595  0.000874 -0.350025 -0.395003 -0.262056
  1O   3s         0.032961 -0.016329  0.008816 -0.175340 -0.152149 -0.287092
  1O   1pz       -0.000000  0.000000 -0.000000 -0.000000  0.000000  0.000000
  1O   1px        0.001838 -0.003052 -0.002034  0.124221  0.129619 -0.319161
  1O   1py        0.000000  0.000000 -0.000000  0.000000 -0.000000  0.000000
  1O   2pz        0.000000  0.000000  0.000000  0.000000 -0.000000  0.000000
  1O   2px       -0.006632  0.003594 -0.008048  0.024307  0.008744 -0.159707
  1O   2py       -0.000000 -0.000000 -0.000000 -0.000000  0.000000  0.000000
  1O   1dz2       0.000045 -0.000490 -0.000863  0.005219  0.005563 -0.007884
  1O   1dxz      -0.000000 -0.000000 -0.000000 -0.000000  0.000000 -0.000000
  1O   1dyz       0.000000  0.000000  0.000000 -0.000000 -0.000000  0.000000
  1O   1dx2y2    -0.000078  0.000848  0.001496 -0.009040 -0.009635  0.013656
  1O   1dxy       0.000000  0.000000  0.000000  0.000000 -0.000000  0.000000
  2O   1s        -0.698982 -0.699054  0.000016 -0.176278  0.193441 -0.125147
  2O   2s         0.031475  0.029594  0.000874 -0.350025  0.395003 -0.262056
  2O   3s        -0.032961 -0.016328  0.008816 -0.175340  0.152149 -0.287092
  2O   1pz       -0.000000  0.000000 -0.000000  0.000000  0.000000  0.000000
  2O   1px        0.001838  0.003052  0.002034 -0.124221  0.129619  0.319161
  2O   1py       -0.000000  0.000000 -0.000000  0.000000 -0.000000  0.000000
  2O   2pz        0.000000  0.000000  0.000000  0.000000  0.000000  0.000000
  2O   2px       -0.006632 -0.003594  0.008048 -0.024307  0.008744  0.159707
  2O   2py        0.000000 -0.000000 -0.000000 -0.000000 -0.000000  0.000000
  2O   1dz2      -0.000045 -0.000490 -0.000863  0.005219 -0.005563 -0.007884
  2O   1dxz       0.000000  0.000000 -0.000000  0.000000 -0.000000  0.000000
  2O   1dyz      -0.000000  0.000000 -0.000000  0.000000  0.000000  0.000000
  2O   1dx2y2     0.000078  0.000848  0.001496 -0.009040  0.009635  0.013656
  2O   1dxy       0.000000 -0.000000 -0.000000  0.000000 -0.000000  0.000000
                      6         7         8         9        10        11
                  -0.51289  -0.50403  -0.50403  -0.36907  -0.36907   0.00838
                   2.00000   2.00000   2.00000   2.00000   2.00000   0.00000
                  --------  --------  --------  --------  --------  --------
  0C   1s        -0.000000  0.000000  0.000000  0.000000  0.000000  0.000000
  0C   2s        -0.000000 -0.000000 -0.000000 -0.000000 -0.000000 -0.000000
  0C   3s        -0.000000 -0.000000 -0.000000  0.000000 -0.000000 -0.000000
  0C   1pz        0.000000  0.382688  0.151288 -0.000000 -0.000000 -0.521101
  0C   1px        0.359621 -0.000000  0.000000 -0.000000 -0.000000  0.000000
  0C   1py       -0.000000 -0.151288  0.382688  0.000000  0.000000 -0.326197
  0C   2pz        0.000000  0.163873  0.064784  0.000000 -0.000000 -0.480335
  0C   2px       -0.051000 -0.000000 -0.000000 -0.000000 -0.000000  0.000000
  0C   2py       -0.000000 -0.064784  0.163873  0.000000 -0.000000 -0.300678
  0C   1dz2       0.000000  0.000000  0.000000 -0.000000  0.000000  0.000000
  0C   1dxz       0.000000 -0.000000 -0.000000  0.000434 -0.062463  0.000000
  0C   1dyz      -0.000000  0.000000 -0.000000 -0.000000 -0.000000  0.000000
  0C   1dx2y2    -0.000000 -0.000000 -0.000000  0.000000 -0.000000 -0.000000
  0C   1dxy       0.000000  0.000000 -0.000000  0.062463  0.000434  0.000000
  1O   1s        -0.094521  0.000000 -0.000000 -0.000000 -0.000000  0.000000
  1O   2s        -0.197898 -0.000000 -0.000000 -0.000000 -0.000000  0.000000
  1O   3s        -0.205298  0.000000  0.000000  0.000000  0.000000 -0.000000
  1O   1pz        0.000000  0.324445  0.128262  0.003249 -0.467899  0.315541
  1O   1px       -0.386059  0.000000 -0.000000  0.000000  0.000000 -0.000000
  1O   1py       -0.000000 -0.128262  0.324445  0.467899  0.003249  0.197521
  1O   2pz        0.000000  0.179456  0.070944  0.002298 -0.330964  0.319657
  1O   2px       -0.194532 -0.000000 -0.000000 -0.000000 -0.000000  0.000000
  1O   2py       -0.000000 -0.070944  0.179456  0.330964  0.002298  0.200097
  1O   1dz2      -0.008509 -0.000000 -0.000000 -0.000000 -0.000000 -0.000000
  1O   1dxz      -0.000000 -0.021724 -0.008588 -0.000114  0.016370  0.010297
  1O   1dyz      -0.000000  0.000000 -0.000000 -0.000000 -0.000000 -0.000000
  1O   1dx2y2     0.014738  0.000000  0.000000  0.000000  0.000000  0.000000
  1O   1dxy       0.000000  0.008588 -0.021724 -0.016370 -0.000114  0.006446
  2O   1s         0.094521 -0.000000  0.000000  0.000000  0.000000 -0.000000
  2O   2s         0.197898 -0.000000  0.000000  0.000000  0.000000 -0.000000
  2O   3s         0.205298 -0.000000  0.000000 -0.000000 -0.000000  0.000000
  2O   1pz        0.000000  0.324445  0.128262 -0.003249  0.467899  0.315541
  2O   1px       -0.386059  0.000000 -0.000000 -0.000000 -0.000000  0.000000
  2O   1py       -0.000000 -0.128262  0.324445 -0.467899 -0.003249  0.197521
  2O   2pz        0.000000  0.179456  0.070944 -0.002298  0.330964  0.319657
  2O   2px       -0.194532  0.000000 -0.000000 -0.000000 -0.000000  0.000000
  2O   2py       -0.000000 -0.070944  0.179456 -0.330964 -0.002298  0.200097
  2O   1dz2       0.008509 -0.000000 -0.000000  0.000000 -0.000000 -0.000000
  2O   1dxz       0.000000  0.021724  0.008588 -0.000114  0.016370 -0.010297
  2O   1dyz       0.000000  0.000000 -0.000000  0.000000  0.000000 -0.000000
  2O   1dx2y2    -0.014738  0.000000  0.000000 -0.000000  0.000000  0.000000
  2O   1dxy      -0.000000 -0.008588  0.021724 -0.016370 -0.000114 -0.006446
                     12        13        14        15        16        17
                   0.00838   0.04663   0.34395   0.42165   0.42165   0.42504
                   0.00000   0.00000   0.00000   0.00000   0.00000   0.00000
                  --------  --------  --------  --------  --------  --------
  0C   1s        -0.000000  0.088913 -0.000000  0.000000  0.000000 -0.333844
  0C   2s         0.000000 -0.098053  0.000000 -0.000000 -0.000000  1.722691
  0C   3s         0.000000 -1.796289 -0.000000  0.000000  0.000000 -1.565387
  0C   1pz       -0.326197  0.000000  0.000000 -0.171887  0.887157  0.000000
  0C   1px        0.000000  0.000000  0.024619 -0.000000  0.000000  0.000000
  0C   1py        0.521101  0.000000 -0.000000 -0.887157 -0.171887 -0.000000
  0C   2pz       -0.300678 -0.000000 -0.000000  0.240685 -1.242241 -0.000000
  0C   2px        0.000000  0.000000  3.595716 -0.000000 -0.000000 -0.000000
  0C   2py        0.480335  0.000000  0.000000  1.242241  0.240685  0.000000
  0C   1dz2       0.000000 -0.033122  0.000000 -0.000000 -0.000000  0.072287
  0C   1dxz       0.000000 -0.000000  0.000000 -0.000000 -0.000000  0.000000
  0C   1dyz      -0.000000 -0.000000 -0.000000 -0.000000 -0.000000 -0.000000
  0C   1dx2y2    -0.000000  0.057369 -0.000000  0.000000  0.000000 -0.125204
  0C   1dxy      -0.000000  0.000000 -0.000000 -0.000000 -0.000000  0.000000
  1O   1s        -0.000000  0.093438 -0.087872  0.000000  0.000000 -0.039373
  1O   2s         0.000000  0.207286 -0.094381  0.000000  0.000000 -0.143811
  1O   3s        -0.000000  0.659199 -2.356075 -0.000000 -0.000000  0.307637
  1O   1pz        0.197521  0.000000 -0.000000 -0.016687  0.086124  0.000000
  1O   1px        0.000000 -0.270807 -0.080252 -0.000000 -0.000000  0.324381
  1O   1py       -0.315541 -0.000000  0.000000 -0.086124 -0.016687 -0.000000
  1O   2pz        0.200097  0.000000  0.000000 -0.029475  0.152128  0.000000
  1O   2px        0.000000 -0.375325  0.592031 -0.000000 -0.000000  0.116505
  1O   2py       -0.319657 -0.000000 -0.000000 -0.152128 -0.029475 -0.000000
  1O   1dz2      -0.000000 -0.004619  0.012617  0.000000  0.000000 -0.026437
  1O   1dxz       0.006446  0.000000 -0.000000  0.005327 -0.027495 -0.000000
  1O   1dyz       0.000000 -0.000000 -0.000000  0.000000  0.000000 -0.000000
  1O   1dx2y2     0.000000  0.008001 -0.021854 -0.000000 -0.000000  0.045791
  1O   1dxy      -0.010297 -0.000000  0.000000  0.027495  0.005327  0.000000
  2O   1s        -0.000000  0.093438  0.087872  0.000000  0.000000 -0.039373
  2O   2s        -0.000000  0.207286  0.094381  0.000000  0.000000 -0.143811
  2O   3s         0.000000  0.659199  2.356075 -0.000000 -0.000000  0.307637
  2O   1pz        0.197521  0.000000 -0.000000 -0.016687  0.086124  0.000000
  2O   1px       -0.000000  0.270807 -0.080252  0.000000  0.000000 -0.324381
  2O   1py       -0.315541 -0.000000  0.000000 -0.086124 -0.016687 -0.000000
  2O   2pz        0.200097  0.000000  0.000000 -0.029475  0.152128  0.000000
  2O   2px        0.000000  0.375325  0.592031  0.000000  0.000000 -0.116505
  2O   2py       -0.319657 -0.000000 -0.000000 -0.152128 -0.029475 -0.000000
  2O   1dz2      -0.000000 -0.004619 -0.012617  0.000000  0.000000 -0.026437
  2O   1dxz      -0.006446  0.000000  0.000000 -0.005327  0.027495  0.000000
  2O   1dyz       0.000000  0.000000  0.000000  0.000000  0.000000  0.000000
  2O   1dx2y2     0.000000  0.008001  0.021854 -0.000000 -0.000000  0.045791
  2O   1dxy       0.010297 -0.000000 -0.000000 -0.027495 -0.005327 -0.000000
                     18        19        20        21        22        23
                   0.71779   0.81838   0.90005   0.90005   1.01716   1.08267
                   0.00000   0.00000   0.00000   0.00000   0.00000   0.00000
                  --------  --------  --------  --------  --------  --------
  0C   1s        -0.000000 -0.074972  0.000000  0.000000 -0.000000  0.000000
  0C   2s         0.000000  1.099659 -0.000000 -0.000000 -0.000000 -0.000000
  0C   3s        -0.000000  0.463579 -0.000000 -0.000000 -0.000000 -0.000000
  0C   1pz        0.000000  0.000000  0.000000  0.000000 -0.000000  0.029327
  0C   1px       -1.227390  0.000000  0.000000  0.000000  0.394844  0.000000
  0C   1py        0.000000 -0.000000 -0.000000  0.000000  0.000000  0.042026
  0C   2pz        0.000000 -0.000000 -0.000000 -0.000000 -0.000000 -0.528466
  0C   2px        0.010423  0.000000  0.000000  0.000000  0.554614  0.000000
  0C   2py       -0.000000  0.000000 -0.000000  0.000000  0.000000 -0.757305
  0C   1dz2      -0.000000 -0.115823  0.000000  0.000000  0.000000 -0.000000
  0C   1dxz       0.000000 -0.000000  0.108546  0.004995 -0.000000 -0.000000
  0C   1dyz      -0.000000 -0.000000 -0.000000  0.000000 -0.000000  0.000000
  0C   1dx2y2     0.000000  0.200612 -0.000000 -0.000000 -0.000000 -0.000000
  0C   1dxy       0.000000  0.000000  0.004995 -0.108546 -0.000000 -0.000000
  1O   1s         0.109629 -0.101380  0.000000  0.000000 -0.009223  0.000000
  1O   2s         0.343745 -0.378011  0.000000  0.000000  0.022380  0.000000
  1O   3s         0.276809 -0.217219 -0.000000 -0.000000 -0.514420 -0.000000
  1O   1pz        0.000000  0.000000  0.658578  0.030303 -0.000000 -0.378526
  1O   1px       -0.105723 -0.471416  0.000000  0.000000  0.740588 -0.000000
  1O   1py        0.000000  0.000000  0.030303 -0.658578  0.000000 -0.542438
  1O   2pz       -0.000000 -0.000000 -0.797474 -0.036694  0.000000  0.629094
  1O   2px       -0.799365  1.109081 -0.000000 -0.000000 -0.608011  0.000000
  1O   2py       -0.000000 -0.000000 -0.036694  0.797474 -0.000000  0.901508
  1O   1dz2       0.038151  0.005453 -0.000000 -0.000000 -0.006014 -0.000000
  1O   1dxz      -0.000000 -0.000000 -0.013725 -0.000632  0.000000  0.026252
  1O   1dyz      -0.000000 -0.000000  0.000000  0.000000 -0.000000  0.000000
  1O   1dx2y2    -0.066080 -0.009444  0.000000  0.000000  0.010416  0.000000
  1O   1dxy      -0.000000  0.000000 -0.000632  0.013725 -0.000000  0.037620
  2O   1s        -0.109629 -0.101380 -0.000000 -0.000000  0.009223 -0.000000
  2O   2s        -0.343745 -0.378011 -0.000000 -0.000000 -0.022380 -0.000000
  2O   3s        -0.276809 -0.217219  0.000000  0.000000  0.514420  0.000000
  2O   1pz        0.000000  0.000000 -0.658578 -0.030303 -0.000000 -0.378526
  2O   1px       -0.105723  0.471416  0.000000  0.000000  0.740588 -0.000000
  2O   1py       -0.000000 -0.000000 -0.030303  0.658578  0.000000 -0.542438
  2O   2pz        0.000000 -0.000000  0.797474  0.036694  0.000000  0.629094
  2O   2px       -0.799365 -1.109081  0.000000  0.000000 -0.608011  0.000000
  2O   2py        0.000000  0.000000  0.036694 -0.797474 -0.000000  0.901508
  2O   1dz2      -0.038151  0.005453  0.000000  0.000000  0.006014 -0.000000
  2O   1dxz       0.000000  0.000000 -0.013725 -0.000632 -0.000000 -0.026252
  2O   1dyz       0.000000  0.000000 -0.000000 -0.000000  0.000000  0.000000
  2O   1dx2y2     0.066080 -0.009444 -0.000000 -0.000000 -0.010416  0.000000
  2O   1dxy      -0.000000 -0.000000 -0.000632  0.013725  0.000000 -0.037620
                     24        25        26        27        28        29
                   1.08267   1.22984   1.53578   1.53578   1.54727   1.54727
                   0.00000   0.00000   0.00000   0.00000   0.00000   0.00000
                  --------  --------  --------  --------  --------  --------
  0C   1s         0.000000 -0.084386  0.000000 -0.000000  0.000000  0.000000
  0C   2s        -0.000000  1.284490 -0.000000  0.000000 -0.000000 -0.000000
  0C   3s        -0.000000  2.441197 -0.000000  0.000000 -0.000000 -0.000000
  0C   1pz       -0.042026  0.000000  0.000000  0.000000 -0.000000  0.000000
  0C   1px       -0.000000 -0.000000  0.000000  0.000000 -0.000000  0.000000
  0C   1py        0.029327  0.000000 -0.000000  0.000000 -0.000000 -0.000000
  0C   2pz        0.757305  0.000000 -0.000000 -0.000000  0.000000 -0.000000
  0C   2px       -0.000000 -0.000000  0.000000  0.000000 -0.000000  0.000000
  0C   2py       -0.528466 -0.000000  0.000000 -0.000000 -0.000000 -0.000000
  0C   1dz2       0.000000 -0.187871 -0.000000  0.832785 -0.000000 -0.000000
  0C   1dxz       0.000000 -0.000000  0.000000 -0.000000 -0.706910  0.475958
  0C   1dyz       0.000000  0.000000  0.961621  0.000000  0.000000 -0.000000
  0C   1dx2y2    -0.000000  0.325402 -0.000000  0.480809 -0.000000 -0.000000
  0C   1dxy      -0.000000 -0.000000 -0.000000 -0.000000 -0.475958 -0.706910
  1O   1s        -0.000000  0.179439 -0.000000  0.000000 -0.000000  0.000000
  1O   2s        -0.000000  1.282849 -0.000000  0.000000 -0.000000  0.000000
  1O   3s         0.000000 -2.831194  0.000000 -0.000000  0.000000 -0.000000
  1O   1pz        0.542438  0.000000 -0.000000 -0.000000  0.133189 -0.089675
  1O   1px        0.000000 -0.004898 -0.000000 -0.000000  0.000000 -0.000000
  1O   1py       -0.378526 -0.000000  0.000000 -0.000000  0.089675  0.133189
  1O   2pz       -0.901508 -0.000000 -0.000000  0.000000  0.118707 -0.079925
  1O   2px       -0.000000  1.174249 -0.000000  0.000000 -0.000000  0.000000
  1O   2py        0.629094  0.000000 -0.000000  0.000000  0.079925  0.118707
  1O   1dz2       0.000000 -0.011950 -0.000000  0.114723  0.000000 -0.000000
  1O   1dxz      -0.037620 -0.000000 -0.000000  0.000000  0.195884 -0.131887
  1O   1dyz       0.000000  0.000000  0.132462  0.000000  0.000000 -0.000000
  1O   1dx2y2    -0.000000  0.020698 -0.000000  0.066235 -0.000000  0.000000
  1O   1dxy       0.026252  0.000000  0.000000  0.000000  0.131887  0.195884
  2O   1s         0.000000  0.179439 -0.000000 -0.000000  0.000000 -0.000000
  2O   2s         0.000000  1.282849 -0.000000 -0.000000  0.000000 -0.000000
  2O   3s        -0.000000 -2.831194  0.000000  0.000000 -0.000000  0.000000
  2O   1pz        0.542438  0.000000  0.000000 -0.000000 -0.133189  0.089675
  2O   1px        0.000000  0.004898 -0.000000 -0.000000  0.000000 -0.000000
  2O   1py       -0.378526 -0.000000  0.000000 -0.000000 -0.089675 -0.133189
  2O   2pz       -0.901508 -0.000000  0.000000  0.000000 -0.118707  0.079925
  2O   2px       -0.000000 -1.174249  0.000000  0.000000 -0.000000  0.000000
  2O   2py        0.629094  0.000000 -0.000000  0.000000 -0.079925 -0.118707
  2O   1dz2       0.000000 -0.011950 -0.000000  0.114723 -0.000000  0.000000
  2O   1dxz       0.037620  0.000000 -0.000000  0.000000  0.195884 -0.131887
  2O   1dyz      -0.000000  0.000000  0.132462  0.000000  0.000000 -0.000000
  2O   1dx2y2    -0.000000  0.020698 -0.000000  0.066235  0.000000 -0.000000
  2O   1dxy      -0.026252 -0.000000  0.000000  0.000000  0.131887  0.195884
                     30        31        32        33        34        35
                   1.57540   2.55172   2.55178   2.64837   2.64844   2.68276
                   0.00000   0.00000   0.00000   0.00000   0.00000   0.00000
                  --------  --------  --------  --------  --------  --------
  0C   1s         0.000000  0.000000 -0.000000 -0.000000  0.000000 -0.024457
  0C   2s        -0.000000  0.000000  0.000000 -0.000000  0.000000 -0.526981
  0C   3s        -0.000000  0.000000  0.000000 -0.000000  0.000000 -0.245535
  0C   1pz        0.000000  0.000000 -0.000000  0.000000 -0.000000  0.000000
  0C   1px       -0.512526  0.000000  0.000000 -0.000000  0.000000  0.000000
  0C   1py       -0.000000 -0.000000 -0.000000 -0.000000  0.000000 -0.000000
  0C   2pz       -0.000000  0.000000  0.000000  0.000000  0.000000  0.000000
  0C   2px       -4.296721 -0.000000 -0.000000  0.000000 -0.000000 -0.000000
  0C   2py        0.000000 -0.000000 -0.000000  0.000000  0.000000 -0.000000
  0C   1dz2       0.000000  0.000000  0.000000 -0.256751  0.000000 -0.501040
  0C   1dxz       0.000000  0.000000  0.000000  0.000000 -0.000000 -0.000000
  0C   1dyz       0.000000  0.000000 -0.000000 -0.000000 -0.296460 -0.000000
  0C   1dx2y2    -0.000000 -0.000000 -0.000000 -0.148236  0.000000  0.867827
  0C   1dxy      -0.000000  0.000000 -0.000000  0.000000  0.000000  0.000000
  1O   1s        -0.228793  0.000000  0.000000 -0.000000  0.000000 -0.121391
  1O   2s        -1.708925  0.000000  0.000000 -0.000000  0.000000 -0.773379
  1O   3s         4.919350 -0.000000 -0.000000  0.000000 -0.000000  0.707368
  1O   1pz       -0.000000  0.000000  0.000000  0.000000  0.000000  0.000000
  1O   1px        0.102200 -0.000000 -0.000000  0.000000 -0.000000  0.534818
  1O   1py        0.000000 -0.000000 -0.000000  0.000000  0.000000 -0.000000
  1O   2pz        0.000000 -0.000000 -0.000000 -0.000000 -0.000000 -0.000000
  1O   2px       -1.237795  0.000000  0.000000 -0.000000  0.000000 -0.516347
  1O   2py       -0.000000  0.000000  0.000000 -0.000000 -0.000000  0.000000
  1O   1dz2       0.043198  0.612374 -0.000000  0.605444 -0.000000 -0.132836
  1O   1dxz      -0.000000  0.000000 -0.000000  0.000000 -0.000000  0.000000
  1O   1dyz       0.000000 -0.000000 -0.707108  0.000000  0.699109  0.000000
  1O   1dx2y2    -0.074820  0.353554 -0.000000  0.349554 -0.000000  0.230078
  1O   1dxy       0.000000 -0.000000 -0.000000 -0.000000  0.000000 -0.000000
  2O   1s         0.228793  0.000000  0.000000 -0.000000  0.000000 -0.121391
  2O   2s         1.708925  0.000000  0.000000 -0.000000  0.000000 -0.773379
  2O   3s        -4.919350 -0.000000 -0.000000  0.000000 -0.000000  0.707368
  2O   1pz       -0.000000  0.000000 -0.000000  0.000000  0.000000 -0.000000
  2O   1px        0.102200  0.000000  0.000000 -0.000000  0.000000 -0.534818
  2O   1py        0.000000 -0.000000 -0.000000 -0.000000  0.000000 -0.000000
  2O   2pz        0.000000 -0.000000  0.000000 -0.000000 -0.000000 -0.000000
  2O   2px       -1.237795 -0.000000 -0.000000  0.000000 -0.000000  0.516347
  2O   2py       -0.000000  0.000000  0.000000  0.000000 -0.000000  0.000000
  2O   1dz2      -0.043198 -0.612374  0.000000  0.605444 -0.000000 -0.132836
  2O   1dxz      -0.000000 -0.000000  0.000000 -0.000000 -0.000000 -0.000000
  2O   1dyz      -0.000000  0.000000  0.707108  0.000000  0.699109  0.000000
  2O   1dx2y2     0.074820 -0.353554  0.000000  0.349554 -0.000000  0.230078
  2O   1dxy       0.000000  0.000000  0.000000  0.000000 -0.000000  0.000000
                     36        37        38        39        40        41
                   2.72675   2.72675   3.44627   3.44627   3.44941   3.80027
                   0.00000   0.00000   0.00000   0.00000   0.00000   0.00000
                  --------  --------  --------  --------  --------  --------
  0C   1s         0.000000  0.000000 -0.000000 -0.000000  0.000000 -0.272361
  0C   2s        -0.000000  0.000000  0.000000  0.000000 -0.000000  1.986954
  0C   3s         0.000000  0.000000  0.000000 -0.000000  0.000000  0.969481
  0C   1pz        0.171116  0.230444 -0.000000 -0.000000  0.000000  0.000000
  0C   1px       -0.000000 -0.000000 -0.000000 -0.000000  1.188886  0.000000
  0C   1py        0.230444 -0.171116 -0.000000  0.000000 -0.000000 -0.000000
  0C   2pz        0.115889  0.156069  0.000000 -0.000000  0.000000 -0.000000
  0C   2px        0.000000  0.000000 -0.000000 -0.000000  1.078255  0.000000
  0C   2py        0.156069 -0.115889  0.000000  0.000000 -0.000000  0.000000
  0C   1dz2       0.000000  0.000000 -0.000000 -0.000000  0.000000 -0.660133
  0C   1dxz      -0.000000 -0.000000  0.115392 -0.875739 -0.000000  0.000000
  0C   1dyz       0.000000 -0.000000 -0.000000  0.000000  0.000000  0.000000
  0C   1dx2y2    -0.000000 -0.000000  0.000000  0.000000 -0.000000  1.143383
  0C   1dxy      -0.000000  0.000000  0.875739  0.115392  0.000000 -0.000000
  1O   1s         0.000000  0.000000 -0.000000 -0.000000  0.025345 -0.058242
  1O   2s         0.000000  0.000000 -0.000000 -0.000000  0.392745 -0.108106
  1O   3s        -0.000000 -0.000000  0.000000  0.000000 -1.666698 -1.306220
  1O   1pz        0.050105  0.067477 -0.007664  0.058167  0.000000 -0.000000
  1O   1px       -0.000000 -0.000000 -0.000000 -0.000000  0.051655  0.453051
  1O   1py        0.067477 -0.050105 -0.058167 -0.007664 -0.000000 -0.000000
  1O   2pz       -0.132801 -0.178845 -0.027861  0.211444  0.000000  0.000000
  1O   2px        0.000000  0.000000 -0.000000 -0.000000  0.806468  0.841724
  1O   2py       -0.178845  0.132801 -0.211444 -0.027861 -0.000000  0.000000
  1O   1dz2      -0.000000 -0.000000 -0.000000 -0.000000  0.413582  0.468368
  1O   1dxz       0.435483  0.586470  0.100601 -0.763491 -0.000000  0.000000
  1O   1dyz      -0.000000  0.000000 -0.000000 -0.000000  0.000000  0.000000
  1O   1dx2y2     0.000000 -0.000000  0.000000  0.000000 -0.716345 -0.811237
  1O   1dxy       0.586470 -0.435483  0.763491  0.100601  0.000000 -0.000000
  2O   1s         0.000000  0.000000  0.000000  0.000000 -0.025345 -0.058242
  2O   2s        -0.000000  0.000000  0.000000  0.000000 -0.392745 -0.108106
  2O   3s         0.000000  0.000000 -0.000000 -0.000000  1.666698 -1.306220
  2O   1pz        0.050105  0.067477  0.007664 -0.058167 -0.000000  0.000000
  2O   1px        0.000000  0.000000 -0.000000 -0.000000  0.051655 -0.453051
  2O   1py        0.067477 -0.050105  0.058167  0.007664  0.000000  0.000000
  2O   2pz       -0.132801 -0.178845  0.027861 -0.211444 -0.000000  0.000000
  2O   2px        0.000000 -0.000000 -0.000000 -0.000000  0.806468 -0.841724
  2O   2py       -0.178845  0.132801  0.211444  0.027861  0.000000 -0.000000
  2O   1dz2       0.000000 -0.000000  0.000000  0.000000 -0.413582  0.468368
  2O   1dxz      -0.435483 -0.586470  0.100601 -0.763491 -0.000000 -0.000000
  2O   1dyz      -0.000000  0.000000  0.000000 -0.000000 -0.000000 -0.000000
  2O   1dx2y2    -0.000000 -0.000000 -0.000000 -0.000000  0.716345 -0.811237
  2O   1dxy      -0.586470  0.435483  0.763491  0.100601  0.000000 -0.000000

MULLIKEN ATOMIC CHARGES
-----------------------
   0 C :    0.300519
   1 O :   -0.150260
   2 O :   -0.150260
Sum of atomic charges:    0.0000000

LOEWDIN ATOMIC CHARGES
----------------------
   0 C :    0.176741
   1 O :   -0.088370
   2 O :   -0.088370

  Mayer bond orders larger than 0.100000
B(  0-C ,  1-O ) :   2.1406 B(  0-C ,  2-O ) :   2.1406 B(  1-O ,  2-O ) :   0.2697

FINAL SINGLE POINT ENERGY      -188.355293991257

DIPOLE MOMENT
-------------

Method             : SCF
Type of density    : Electron Density
Multiplicity       :   1
Irrep              :   0
Energy             :  -188.3552939912568434 Eh
Relativity type    :
Basis              : AO
                                X                 Y                 Z
Electronic contribution:     -0.000000001       0.000000000      -0.000000000
Nuclear contribution   :      0.000000000       0.000000000       0.000000000
                        -----------------------------------------
Total Dipole Moment    :     -0.000000001       0.000000000      -0.000000000
                        -----------------------------------------
Magnitude (a.u.)       :      0.000000001
Magnitude (Debye)      :      0.000000004

VIBRATIONAL FREQUENCIES
-----------------------

Scaling factor for frequencies =  1.000000000  (already applied!)

     0:       0.00 cm**-1
     1:       0.00 cm**-1
     2:       0.00 cm**-1
     3:       0.00 cm**-1
     4:       0.00 cm**-1
     5:     736.42 cm**-1
     6:     736.43 cm**-1
     7:    1209.12 cm**-1
     8:    2144.33 cm**-1

IR SPECTRUM
-----------

 Mode   freq       eps      Int      T**2         TX        TY        TZ
       cm**-1   L/(mol*cm) km/mol    a.u.
----------------------------------------------------------------------------
  5:    736.42   0.005841   29.52  0.002475  ( 0.000000 -0.018018 -0.046374)
  6:    736.43   0.005841   29.52  0.002475  (-0.000001 -0.046374  0.018018)
  7:   1209.12   0.000000    0.00  0.000000  ( 0.000001 -0.000000  0.000000)
  8:   2144.33   0.108186  546.73  0.015744  ( 0.125476 -0.000000  0.000000)

--------------------------
THERMOCHEMISTRY AT 298.15K
--------------------------

Temperature         ...   298.15 K
Pressure            ...     1.00 atm
Total Mass          ...    44.01 AMU
Quasi RRHO          ...     True
Cut-Off Frequency   ...     1.00 cm^-1
The molecule is recognized as being linear

Throughout the following assumptions are being made:
  (1) The electronic state is orbitally nondegenerate
  (2) There are no thermally accessible electronically excited states
  (3) Hindered rotations indicated by low frequency modes are not
      treated as such but are treated as vibrations and this may
      cause some error
  (4) All equations used are the standard statistical mechanics
      equations for an ideal gas
  (5) All vibrations are strictly harmonic

freq.     736.42  E(vib)   ...       0.06
freq.     736.43  E(vib)   ...       0.06
freq.    1209.12  E(vib)   ...       0.01
freq.    2144.33  E(vib)   ...       0.00

------------
INNER ENERGY
------------

The inner energy is: U= E(el) + E(ZPE) + E(vib) + E(rot) + E(trans)
    E(el)   - is the total energy from the electronic structure calculation
              = E(kin-el) + E(nuc-el) + E(el-el) + E(nuc-nuc)
    E(ZPE)  - the the zero temperature vibrational energy from the frequency calculation
    E(vib)  - the the finite temperature correction to E(ZPE) due to population
              of excited vibrational states
    E(rot)  - is the rotational thermal energy
    E(trans)- is the translational thermal energy

Summary of contributions to the inner energy U:
Electronic energy                ...   -188.35529399 Eh
Zero point energy                ...      0.01099511 Eh       6.90 kcal/mol
Thermal vibrational correction   ...      0.00021419 Eh       0.13 kcal/mol
Thermal rotational correction    ...      0.00094418 Eh       0.59 kcal/mol
Thermal translational correction ...      0.00141627 Eh       0.89 kcal/mol
-----------------------------------------------------------------------
Total thermal energy                   -188.34172424 Eh

Summary of corrections to the electronic energy:
(perhaps to be used in another calculation)
Total thermal correction                  0.00257464 Eh       1.62 kcal/mol
Non-thermal (ZPE) correction              0.01099511 Eh       6.90 kcal/mol
-----------------------------------------------------------------------
Total correction                          0.01356976 Eh       8.52 kcal/mol

--------
ENTHALPY
--------

The enthalpy is H = U + kB*T
                kB is Boltzmann's constant
Total thermal energy              ...   -188.34172424 Eh
Thermal Enthalpy correction       ...      0.00094421 Eh       0.59 kcal/mol
-----------------------------------------------------------------------
Total Enthalpy                    ...   -188.34078003 Eh

Note: Rotational entropy computed according to Herzberg
Infrared and Raman Spectra, Chapter V,1, Van Nostrand Reinhold, 1945
Point Group:  D(inf)h, Symmetry Number:   1
Rotational constants in cm-1:     0.000000     0.365857     0.365857

Vibrational entropy computed according to the QRRHO of S. Grimme
Chem.Eur.J. 2012 18 9955 using a reference frequency of 100.0 cm-1

-------
ENTROPY
-------

The entropy contributions are T*S = T*(S(el)+S(vib)+S(rot)+S(trans))
     S(el)   - electronic entropy
     S(vib)  - vibrational entropy
     S(rot)  - rotational entropy
     S(trans)- translational entropy
The entropies will be listed as multiplied by the temperature to get
units of energy

Electronic entropy                ...      0.00000000 Eh      0.00 kcal/mol
Vibrational entropy               ...      0.00027202 Eh      0.17 kcal/mol
Rotational entropy                ...      0.00692965 Eh      4.35 kcal/mol
Translational entropy             ...      0.01770880 Eh     11.11 kcal/mol
-----------------------------------------------------------------------
Final entropy term                ...      0.02491047 Eh     15.63 kcal/mol

-------------------
GIBBS FREE ENERGY
-------------------

The Gibbs free energy is G = H - T*S

Total enthalpy                    ...   -188.34078003 Eh
Total entropy correction          ...     -0.02491047 Eh    -15.63 kcal/mol
-----------------------------------------------------------------------
Final Gibbs free energy         ...   -188.36569049 Eh

For completeness - the Gibbs free energy minus the electronic energy
G-E(el)                           ...     -0.01039650 Eh     -6.52 kcal/mol

                             ****ORCA TERMINATED NORMALLY****
TOTAL RUN TIME: 0 days 0 hours 0 minutes 48 seconds 454 msec
