                         Program Version 6.0.1  -  RELEASE   -
|  1> ! B3LYP def2-TZVPD Opt NumFreq TightSCF
|  2> %maxcore 2000
|  3> %geom
|  4> Calc_Hess true
|  5> Recalc_Hess 5
|  6> end
|  7> %output
|  8>   PrintLevel 4
|  9> end
| 10> %elprop Polar 1 end
| 11> * xyz 0 1
| 12> C    0.000000    0.000000    0.000000
| 13> O    1.200000    0.000000    0.000000
| 14> O   -1.200000    0.000000    0.000000
| 15> *
| 16>
| 17>
| 18>                          ****END OF INPUT****
 Total Charge           Charge          ....    0
 Multiplicity           Mult            ....    1
 Number of Electrons    NEL             ....   22
FINAL SINGLE POINT ENERGY      -188.582292359597
FINAL SINGLE POINT ENERGY      -188.588072996153
FINAL SINGLE POINT ENERGY      -188.588204697086
FINAL SINGLE POINT ENERGY      -188.588207559685
                    ***********************HURRAY********************

CARTESIAN COORDINATES (ANGSTROEM)
---------------------------------
  C      0.000004   -0.000001    0.000000
  O      1.160029    0.000000   -0.000000
  O     -1.160033    0.000000   -0.000000

 Multiplicity           Mult            ....    1
 Number of Electrons    NEL             ....   22
 Basis Dimension        Dim             ....  117

ORBITAL ENERGIES
----------------

  NO   OCC          E(Eh)            E(eV)
   0   2.0000     -19.212599      -522.8014
   1   2.0000     -19.212476      -522.7980
   2   2.0000     -10.363601      -282.0079
   3   2.0000      -1.168775       -31.8040
   4   2.0000      -1.129212       -30.7274
   5   2.0000      -0.570092       -15.5130
   6   2.0000      -0.528230       -14.3739
   7   2.0000      -0.524864       -14.2823
   8   2.0000      -0.524864       -14.2823
   9   2.0000      -0.380970       -10.3667
  10   2.0000      -0.380970       -10.3667
  11   0.0000      -0.017778        -0.4838
  12   0.0000       0.024506         0.6669
  13   0.0000       0.024506         0.6669
  14   0.0000       0.055858         1.5200
  15   0.0000       0.057048         1.5523

MULLIKEN ATOMIC CHARGES
-----------------------
   0 C :    0.608535
   1 O :   -0.304256
   2 O :   -0.304279
Sum of atomic charges:   -0.0000000

LOEWDIN ATOMIC CHARGES
----------------------
   0 C :   -0.412730
   1 O :    0.206372
   2 O :    0.206358

  Mayer bond orders larger than 0.100000
B(  0-C ,  1-O ) :   1.9451 B(  0-C ,  2-O ) :   1.9451 B(  1-O ,  2-O ) :   0.3067

FINAL SINGLE POINT ENERGY      -188.588207565122

DIPOLE MOMENT
-------------

Method             : SCF
Type of density    : Electron Density
Multiplicity       :   1
Irrep              :   0
Energy             :  -188.5882075651215359 Eh
Relativity type    :
Basis              : AO
                                X                 Y                 Z
Electronic contribution:      0.000025601      -0.000001176       0.000000044
Nuclear contribution   :     -0.000000052       0.000000011      -0.000000000
                        -----------------------------------------
Total Dipole Moment    :      0.000025549      -0.000001165       0.000000044
                        -----------------------------------------
Magnitude (a.u.)       :      0.000025576
Magnitude (Debye)      :      0.000065008

VIBRATIONAL FREQUENCIES
-----------------------

Scaling factor for frequencies =  1.000000000  (already applied!)

     0:       0.00 cm**-1
     1:       0.00 cm**-1
     2:       0.00 cm**-1
     3:       0.00 cm**-1
     4:       0.00 cm**-1
     5:     669.89 cm**-1
     6:     669.91 cm**-1
     7:    1371.74 cm**-1
     8:    2404.58 cm**-1

IR SPECTRUM
-----------

 Mode   freq       eps      Int      T**2         TX        TY        TZ
       cm**-1   L/(mol*cm) km/mol    a.u.
----------------------------------------------------------------------------
  5:    669.89   0.006231   31.49  0.002903  (-0.000000 -0.043963 -0.031145)
  6:    669.91   0.006231   31.49  0.002903  (-0.000001 -0.031145  0.043962)
  7:   1371.74   0.000000    0.00  0.000000  (-0.000005 -0.000001 -0.000000)
  8:   2404.58   0.133549  674.90  0.017332  (-0.131650  0.000000 -0.000000)

--------------------------
THERMOCHEMISTRY AT 298.15K
--------------------------

Temperature         ...   298.15 K
Pressure            ...     1.00 atm
Total Mass          ...    44.01 AMU
Quasi RRHO          ...     True
Cut-Off Frequency   ...     1.00 cm^-1
The molecule is recognized as being linear

Throughout the following assumptions are being made:
  (1) The electronic state is orbitally nondegenerate
  (2) There are no thermally accessible electronically excited states
  (3) Hindered rotations indicated by low frequency modes are not
      treated as such but are treated as vibrations and this may
      cause some error
  (4) All equations used are the standard statistical mechanics
      equations for an ideal gas
  (5) All vibrations are strictly harmonic

freq.     669.89  E(vib)   ...       0.08
freq.     669.91  E(vib)   ...       0.08
freq.    1371.74  E(vib)   ...       0.01
freq.    2404.58  E(vib)   ...       0.00

------------
INNER ENERGY
------------

The inner energy is: U= E(el) + E(ZPE) + E(vib) + E(rot) + E(trans)
    E(el)   - is the total energy from the electronic structure calculation
              = E(kin-el) + E(nuc-el) + E(el-el) + E(nuc-nuc)
    E(ZPE)  - the the zero temperature vibrational energy from the frequency calculation
    E(vib)  - the the finite temperature correction to E(ZPE) due to population
              of excited vibrational states
    E(rot)  - is the rotational thermal energy
    E(trans)- is the translational thermal energy

Summary of contributions to the inner energy U:
Electronic energy                ...   -188.58820757 Eh
Zero point energy                ...      0.01165539 Eh       7.31 kcal/mol
Thermal vibrational correction   ...      0.00025919 Eh       0.16 kcal/mol
Thermal rotational correction    ...      0.00094418 Eh       0.59 kcal/mol
Thermal translational correction ...      0.00141627 Eh       0.89 kcal/mol
-----------------------------------------------------------------------
Total thermal energy                   -188.57393253 Eh

Summary of corrections to the electronic energy:
(perhaps to be used in another calculation)
Total thermal correction                  0.00261964 Eh       1.64 kcal/mol
Non-thermal (ZPE) correction              0.01165539 Eh       7.31 kcal/mol
-----------------------------------------------------------------------
Total correction                          0.01427503 Eh       8.96 kcal/mol

--------
ENTHALPY
--------

The enthalpy is H = U + kB*T
                kB is Boltzmann's constant
Total thermal energy              ...   -188.57393253 Eh
Thermal Enthalpy correction       ...      0.00094421 Eh       0.59 kcal/mol
-----------------------------------------------------------------------
Total Enthalpy                    ...   -188.57298833 Eh

Note: Rotational entropy computed according to Herzberg
Infrared and Raman Spectra, Chapter V,1, Van Nostrand Reinhold, 1945
Point Group:  D(inf)h, Symmetry Number:   1
Rotational constants in cm-1:     0.000000     0.391503     0.391503

Vibrational entropy computed according to the QRRHO of S. Grimme
Chem.Eur.J. 2012 18 9955 using a reference frequency of 100.0 cm-1

-------
ENTROPY
-------

The entropy contributions are T*S = T*(S(el)+S(vib)+S(rot)+S(trans))
     S(el)   - electronic entropy
     S(vib)  - vibrational entropy
     S(rot)  - rotational entropy
     S(trans)- translational entropy
The entropies will be listed as multiplied by the temperature to get
units of energy

Electronic entropy                ...      0.00000000 Eh      0.00 kcal/mol
Vibrational entropy               ...      0.00033676 Eh      0.21 kcal/mol
Rotational entropy                ...      0.00686568 Eh      4.31 kcal/mol
Translational entropy             ...      0.01770880 Eh     11.11 kcal/mol
-----------------------------------------------------------------------
Final entropy term                ...      0.02491124 Eh     15.63 kcal/mol

In case the symmetry of your molecule has not been determined correctly
or in case you have a reason to use a different symmetry number we print
out the resulting rotational entropy values for sn=1,12:

 non-linear molecules -----------------------------------
|  sn= 1 | S(rot)=      -0.00266971 Eh     -1.68 kcal/mol|
|  sn= 2 | S(rot)=      -0.00332417 Eh     -2.09 kcal/mol|
|  sn= 3 | S(rot)=      -0.00370700 Eh     -2.33 kcal/mol|
|  sn= 4 | S(rot)=      -0.00397862 Eh     -2.50 kcal/mol|
|  sn= 5 | S(rot)=      -0.00418931 Eh     -2.63 kcal/mol|
|  sn= 6 | S(rot)=      -0.00436146 Eh     -2.74 kcal/mol|
|  sn= 7 | S(rot)=      -0.00450700 Eh     -2.83 kcal/mol|
|  sn= 8 | S(rot)=      -0.00463308 Eh     -2.91 kcal/mol|
|  sn= 9 | S(rot)=      -0.00474429 Eh     -2.98 kcal/mol|
|  sn=10 | S(rot)=      -0.00484377 Eh     -3.04 kcal/mol|
|  sn=11 | S(rot)=      -0.00493376 Eh     -3.10 kcal/mol|
|  sn=12 | S(rot)=      -0.00501591 Eh     -3.15 kcal/mol|
 linear molecules ---------------------------------------
|  Dinfh | S(rot)=       0.00621122 Eh      3.90 kcal/mol|
|  Cinfv | S(rot)=       0.00686568 Eh      4.31 kcal/mol|
 --------------------------------------------------------

-------------------
GIBBS FREE ENERGY
-------------------

The Gibbs free energy is G = H - T*S

Total enthalpy                    ...   -188.57298833 Eh
Total entropy correction          ...     -0.02491124 Eh    -15.63 kcal/mol
-----------------------------------------------------------------------
Final Gibbs free energy         ...   -188.59789956 Eh

For completeness - the Gibbs free energy minus the electronic energy
G-E(el)                           ...     -0.00969200 Eh     -6.08 kcal/mol

                             ****ORCA TERMINATED NORMALLY****
TOTAL RUN TIME: 0 days 0 hours 6 minutes 7 seconds 778 msec
