                         Program Version 6.0.1  -  RELEASE   -
|  1> ! B3LYP def2-SVP Opt Freq TightSCF
|  2>
|  3> %maxcore 2000
|  4>
|  5> %freq
|  6> PROJECTTR false
|  7> end
|  8> %output
|  9>   PrintLevel 5
| 10> end
| 11> * xyz 0 1
| 12>   C          -0.00000229681799      0.00000001976635      0.00000000873661
| 13>   O           1.16004276990079     -0.00000000988324     -0.00000000436829
| 14>   O          -1.16004047308281     -0.00000000988311     -0.00000000436832
| 15> *
| 16> %elprop
| 17>  Polar 1
| 18> end
| 19>
| 20>                          ****END OF INPUT****
 Total Charge           Charge          ....    0
 Multiplicity           Mult            ....    1
 Number of Electrons    NEL             ....   22
FINAL SINGLE POINT ENERGY      -188.360405612180
FINAL SINGLE POINT ENERGY      -188.360449955983
FINAL SINGLE POINT ENERGY      -188.360450347524
                    ***********************HURRAY********************

CARTESIAN COORDINATES (ANGSTROEM)
---------------------------------
  C     -0.000003    0.000000    0.000000
  O      1.163304   -0.000000   -0.000000
  O     -1.163301   -0.000000   -0.000000

 Multiplicity           Mult            ....    1
 Number of Electrons    NEL             ....   22
 Basis Dimension        Dim             ....   42

ORBITAL ENERGIES
----------------

  NO   OCC          E(Eh)            E(eV)
   0   2.0000     -19.214721      -522.8591
   1   2.0000     -19.214650      -522.8572
   2   2.0000     -10.376434      -282.3571
   3   2.0000      -1.147185       -31.2165
   4   2.0000      -1.108362       -30.1601
   5   2.0000      -0.550935       -14.9917
   6   2.0000      -0.516151       -14.0452
   7   2.0000      -0.516151       -14.0452
   8   2.0000      -0.514076       -13.9887
   9   2.0000      -0.370161       -10.0726
  10   2.0000      -0.370161       -10.0726
  11   0.0000       0.033534         0.9125
  12   0.0000       0.033534         0.9125
  13   0.0000       0.061469         1.6727
  14   0.0000       0.342241         9.3128
  15   0.0000       0.417364        11.3570

------------------
MOLECULAR ORBITALS (RHF, ROHF)
------------------
                      0         1         2         3         4         5
                 -19.21472 -19.21465 -10.37643  -1.14718  -1.10836  -0.55093
                   2.00000   2.00000   2.00000   2.00000   2.00000   2.00000
                  --------  --------  --------  --------  --------  --------
  0C   1s        -0.000124  0.000838  0.988105  0.199580  0.000035  0.172246
  0C   2s         0.000054 -0.000369  0.050744 -0.390318 -0.000070 -0.408448
  0C   3s        -0.001640  0.011101 -0.003430 -0.029719 -0.000006 -0.065628
  0C   1pz       -0.000000  0.000000 -0.000000  0.000000 -0.000000 -0.000000
  0C   1px       -0.000517 -0.000076 -0.000000  0.000064 -0.350212  0.000053
  0C   1py       -0.000000  0.000000 -0.000000  0.000000  0.000000  0.000000
  0C   2pz        0.000000 -0.000000 -0.000000 -0.000000 -0.000000 -0.000000
  0C   2px        0.024685  0.003645 -0.000000  0.000013 -0.067829 -0.000009
  0C   2py        0.000000 -0.000000 -0.000000 -0.000000  0.000000 -0.000000
  0C   1dz2      -0.000369  0.002498 -0.003376  0.021134  0.000004  0.002735
  0C   1dxz       0.000000  0.000000 -0.000000  0.000000  0.000000  0.000000
  0C   1dyz       0.000000 -0.000000 -0.000000  0.000000  0.000000  0.000000
  0C   1dx2y2     0.000639 -0.004327  0.005847 -0.036605 -0.000007 -0.004737
  0C   1dxy       0.000000  0.000000  0.000000 -0.000000  0.000000  0.000000
  1O   1s        -0.589325 -0.793593  0.000089 -0.175716 -0.192558  0.124172
  1O   2s         0.026845  0.034541 -0.001259 -0.345993 -0.390968  0.259988
  1O   3s        -0.030131 -0.021561 -0.009853 -0.166669 -0.131835  0.286743
  1O   1pz        0.000000  0.000000 -0.000000 -0.000000 -0.000000 -0.000000
  1O   1px       -0.001424 -0.003652  0.002168  0.129591  0.136456  0.328588
  1O   1py        0.000000  0.000000 -0.000000 -0.000000 -0.000000 -0.000000
  1O   2pz       -0.000000  0.000000 -0.000000  0.000000 -0.000000 -0.000000
  1O   2px        0.005531  0.004505  0.008566  0.022241  0.003864  0.165031
  1O   2py       -0.000000  0.000000 -0.000000 -0.000000  0.000000 -0.000000
  1O   1dz2      -0.000030 -0.000581  0.000697  0.005911  0.006001  0.008774
  1O   1dxz       0.000000 -0.000000  0.000000  0.000000  0.000000  0.000000
  1O   1dyz      -0.000000 -0.000000  0.000000 -0.000000  0.000000 -0.000000
  1O   1dx2y2     0.000052  0.001007 -0.001207 -0.010238 -0.010395 -0.015197
  1O   1dxy       0.000000 -0.000000  0.000000  0.000000  0.000000  0.000000
  2O   1s         0.793559 -0.589371  0.000089 -0.175785  0.192495  0.124200
  2O   2s        -0.035683  0.025307 -0.001259 -0.346133  0.390845  0.260048
  2O   3s         0.035078 -0.011931 -0.009853 -0.166713  0.131773  0.286808
  2O   1pz       -0.000000  0.000000  0.000000 -0.000000  0.000000 -0.000000
  2O   1px       -0.002419  0.003084 -0.002168 -0.129641  0.136409 -0.328706
  2O   1py       -0.000000  0.000000 -0.000000 -0.000000  0.000000 -0.000000
  2O   2pz        0.000000  0.000000 -0.000000 -0.000000 -0.000000 -0.000000
  2O   2px        0.006597 -0.002714 -0.008566 -0.022241  0.003855 -0.165088
  2O   2py        0.000000  0.000000 -0.000000 -0.000000  0.000000 -0.000000
  2O   1dz2       0.000197 -0.000548  0.000697  0.005913 -0.005999  0.008777
  2O   1dxz       0.000000  0.000000 -0.000000 -0.000000  0.000000 -0.000000
  2O   1dyz      -0.000000  0.000000 -0.000000  0.000000  0.000000  0.000000
  2O   1dx2y2    -0.000341  0.000949 -0.001207 -0.010241  0.010391 -0.015202
  2O   1dxy       0.000000  0.000000 -0.000000 -0.000000  0.000000 -0.000000
                      6         7         8         9        10        11
                  -0.51615  -0.51615  -0.51408  -0.37016  -0.37016   0.03353
                   2.00000   2.00000   2.00000   2.00000   2.00000   0.00000
                  --------  --------  --------  --------  --------  --------
  0C   1s         0.000000  0.000000  0.000026  0.000000 -0.000000  0.000000
  0C   2s        -0.000000 -0.000000 -0.000063 -0.000000  0.000000 -0.000000
  0C   3s        -0.000000 -0.000000 -0.000012 -0.000000  0.000000 -0.000001
  0C   1pz        0.006079  0.416232  0.000000 -0.000015  0.000000 -0.026352
  0C   1px        0.000000  0.000000 -0.353185 -0.000000  0.000000  0.000000
  0C   1py       -0.416232  0.006079 -0.000000 -0.000000 -0.000015 -0.611928
  0C   2pz        0.002453  0.167957  0.000000 -0.000008  0.000000 -0.026097
  0C   2px       -0.000000 -0.000000  0.055734 -0.000000 -0.000000  0.000000
  0C   2py       -0.167957  0.002453 -0.000000 -0.000000 -0.000008 -0.606019
  0C   1dz2       0.000000  0.000000  0.000000  0.000000 -0.000000 -0.000000
  0C   1dxz      -0.000000 -0.000003  0.000000 -0.065359  0.001939  0.000000
  0C   1dyz       0.000000 -0.000000  0.000000 -0.000000  0.000000 -0.000000
  0C   1dx2y2    -0.000000 -0.000000 -0.000001 -0.000000  0.000000  0.000000
  0C   1dxy       0.000003 -0.000000 -0.000000 -0.001939 -0.065359  0.000000
  1O   1s        -0.000000 -0.000000  0.095870  0.000000 -0.000000  0.000000
  1O   2s        -0.000000 -0.000000  0.201283 -0.000000 -0.000000  0.000000
  1O   3s        -0.000000 -0.000000  0.214457  0.000000 -0.000000  0.000001
  1O   1pz        0.005082  0.347934  0.000000 -0.467740  0.013879  0.016208
  1O   1px       -0.000000 -0.000000  0.387445 -0.000000 -0.000000 -0.000000
  1O   1py       -0.347934  0.005082 -0.000000 -0.013879 -0.467740  0.376382
  1O   2pz        0.002747  0.188077  0.000000 -0.329670  0.009782  0.017161
  1O   2px       -0.000000 -0.000000  0.188778 -0.000000 -0.000000 -0.000000
  1O   2py       -0.188077  0.002747 -0.000000 -0.009782 -0.329670  0.398498
  1O   1dz2      -0.000000 -0.000000  0.008902 -0.000000  0.000000 -0.000000
  1O   1dxz      -0.000356 -0.024390 -0.000000  0.016452 -0.000488  0.000564
  1O   1dyz      -0.000000  0.000000  0.000000 -0.000000  0.000000 -0.000000
  1O   1dx2y2     0.000000  0.000000 -0.015418  0.000000 -0.000000  0.000000
  1O   1dxy       0.024390 -0.000356  0.000000  0.000488  0.016452  0.013087
  2O   1s         0.000000  0.000000 -0.095832  0.000000 -0.000000  0.000000
  2O   2s         0.000000  0.000000 -0.201204  0.000000 -0.000000  0.000000
  2O   3s         0.000000  0.000000 -0.214371 -0.000000 -0.000000  0.000001
  2O   1pz        0.005082  0.347971  0.000000  0.467712 -0.013878  0.016209
  2O   1px       -0.000000 -0.000000  0.387349 -0.000000 -0.000000  0.000000
  2O   1py       -0.347971  0.005082 -0.000000  0.013878  0.467712  0.376387
  2O   2pz        0.002747  0.188101  0.000000  0.329654 -0.009782  0.017161
  2O   2px       -0.000000 -0.000000  0.188728 -0.000000 -0.000000  0.000000
  2O   2py       -0.188101  0.002747 -0.000000  0.009782  0.329654  0.398500
  2O   1dz2      -0.000000  0.000000 -0.008899 -0.000000 -0.000000 -0.000000
  2O   1dxz       0.000356  0.024391  0.000000  0.016450 -0.000488 -0.000564
  2O   1dyz      -0.000000  0.000000  0.000000  0.000000  0.000000 -0.000000
  2O   1dx2y2     0.000000 -0.000000  0.015414  0.000000 -0.000000  0.000000
  2O   1dxy      -0.024391  0.000356 -0.000000  0.000488  0.016450 -0.013088
                     12        13        14        15        16        17
                   0.03353   0.06147   0.34224   0.41736   0.41736   0.46593
                   0.00000   0.00000   0.00000   0.00000   0.00000   0.00000
                  --------  --------  --------  --------  --------  --------
  0C   1s         0.000000 -0.069310  0.000003 -0.000000 -0.000000  0.336415
  0C   2s        -0.000000  0.048478 -0.000007  0.000000  0.000000 -1.719519
  0C   3s        -0.000000  1.934919  0.000014 -0.000000 -0.000000  1.468212
  0C   1pz       -0.611928 -0.000000 -0.000000 -0.031063  0.899126  0.000000
  0C   1px       -0.000000  0.000001 -0.031624  0.000000  0.000000 -0.000013
  0C   1py        0.026352 -0.000000 -0.000000  0.899126  0.031063  0.000000
  0C   2pz       -0.606019 -0.000000  0.000000  0.043739 -1.266004 -0.000000
  0C   2px       -0.000000 -0.000014 -3.639133 -0.000000 -0.000000  0.000037
  0C   2py        0.026097 -0.000001  0.000000 -1.266004 -0.043739 -0.000000
  0C   1dz2      -0.000000  0.030656 -0.000001  0.000000 -0.000000 -0.087698
  0C   1dxz       0.000000 -0.000000  0.000000  0.000000 -0.000001 -0.000000
  0C   1dyz      -0.000000  0.000000 -0.000000 -0.000000 -0.000000  0.000000
  0C   1dx2y2     0.000000 -0.053098  0.000002 -0.000000 -0.000000  0.151898
  0C   1dxy      -0.000000  0.000000  0.000000 -0.000001 -0.000000  0.000000
  1O   1s         0.000000 -0.094639  0.085551 -0.000000 -0.000000  0.050173
  1O   2s         0.000000 -0.204373  0.082164 -0.000000  0.000000  0.178507
  1O   3s         0.000000 -0.727057  2.436423  0.000000  0.000000 -0.291219
  1O   1pz        0.376382  0.000000  0.000000 -0.002749  0.079566  0.000000
  1O   1px       -0.000000  0.239870  0.091536  0.000000  0.000000 -0.343163
  1O   1py       -0.016208  0.000000  0.000000  0.079566  0.002749  0.000000
  1O   2pz        0.398498  0.000000  0.000000 -0.005261  0.152267  0.000000
  1O   2px       -0.000000  0.367079 -0.550379  0.000000  0.000000 -0.134329
  1O   2py       -0.017161  0.000000  0.000000  0.152267  0.005261  0.000000
  1O   1dz2      -0.000000  0.005968 -0.012465 -0.000000  0.000000  0.029315
  1O   1dxz       0.013087  0.000000 -0.000000  0.001058 -0.030623 -0.000000
  1O   1dyz      -0.000000  0.000000 -0.000000  0.000000  0.000000  0.000000
  1O   1dx2y2     0.000000 -0.010337  0.021590  0.000000 -0.000000 -0.050776
  1O   1dxy      -0.000564  0.000000 -0.000000 -0.030623 -0.001058 -0.000000
  2O   1s         0.000000 -0.094640 -0.085551 -0.000000 -0.000000  0.050174
  2O   2s         0.000000 -0.204376 -0.082163 -0.000000 -0.000000  0.178506
  2O   3s         0.000000 -0.727077 -2.436435 -0.000000 -0.000000 -0.291178
  2O   1pz        0.376387  0.000000 -0.000000 -0.002749  0.079568  0.000000
  2O   1px        0.000000 -0.239866  0.091550 -0.000000 -0.000000  0.343156
  2O   1py       -0.016209  0.000000 -0.000000  0.079568  0.002749  0.000000
  2O   2pz        0.398500  0.000000 -0.000000 -0.005260  0.152261  0.000000
  2O   2px        0.000000 -0.367076 -0.550371 -0.000000 -0.000000  0.134328
  2O   2py       -0.017161  0.000000 -0.000000  0.152261  0.005260  0.000000
  2O   1dz2      -0.000000  0.005968  0.012465 -0.000000  0.000000  0.029315
  2O   1dxz      -0.013088 -0.000000 -0.000000 -0.001058  0.030624  0.000000
  2O   1dyz      -0.000000  0.000000  0.000000  0.000000  0.000000  0.000000
  2O   1dx2y2     0.000000 -0.010337 -0.021591  0.000000 -0.000000 -0.050775
  2O   1dxy       0.000564 -0.000000 -0.000000  0.030624  0.001058  0.000000
                     18        19        20        21        22        23
                   0.75882   0.80752   0.90199   0.90199   1.07979   1.09279
                   0.00000   0.00000   0.00000   0.00000   0.00000   0.00000
                  --------  --------  --------  --------  --------  --------
  0C   1s        -0.000010  0.085563  0.000000 -0.000000  0.000003 -0.000000
  0C   2s         0.000124 -1.291741 -0.000000  0.000000 -0.000021  0.000000
  0C   3s         0.000042 -0.596752 -0.000000 -0.000000  0.000003  0.000000
  0C   1pz        0.000000  0.000000  0.000000 -0.000003  0.000000  0.002825
  0C   1px       -1.165225 -0.000091  0.000000  0.000000  0.641915  0.000000
  0C   1py        0.000000  0.000000 -0.000003 -0.000000  0.000000 -0.048799
  0C   2pz        0.000000  0.000000 -0.000002  0.000029 -0.000000 -0.056468
  0C   2px       -0.013050 -0.000019 -0.000000  0.000000  0.642287  0.000000
  0C   2py       -0.000000  0.000000  0.000029  0.000002 -0.000000  0.975282
  0C   1dz2      -0.000006  0.121310  0.000000 -0.000000  0.000000 -0.000000
  0C   1dxz      -0.000000 -0.000000  0.007834 -0.139644  0.000000 -0.000000
  0C   1dyz       0.000000 -0.000000  0.000000  0.000000 -0.000000  0.000000
  0C   1dx2y2     0.000011 -0.210114 -0.000000  0.000000 -0.000000  0.000000
  0C   1dxy      -0.000000  0.000000 -0.139644 -0.007834  0.000000  0.000001
  1O   1s         0.103479  0.093493  0.000000  0.000000 -0.032482  0.000000
  1O   2s         0.318062  0.325575  0.000000  0.000000 -0.064093  0.000000
  1O   3s         0.348965  0.410776 -0.000000 -0.000000 -0.619573 -0.000000
  1O   1pz       -0.000000 -0.000000  0.036415 -0.649143 -0.000000 -0.038290
  1O   1px        0.012684  0.455195  0.000000  0.000000  0.755057  0.000000
  1O   1py       -0.000000 -0.000000 -0.649143 -0.036415 -0.000000  0.661324
  1O   2pz        0.000000  0.000000 -0.045378  0.808915  0.000000  0.065215
  1O   2px       -0.947198 -1.193848  0.000000  0.000000 -0.465984  0.000000
  1O   2py        0.000000  0.000000  0.808915  0.045378 -0.000000 -1.126362
  1O   1dz2       0.038894 -0.008607 -0.000000 -0.000000 -0.018859 -0.000000
  1O   1dxz       0.000000 -0.000000 -0.000823  0.014666 -0.000000  0.002698
  1O   1dyz      -0.000000 -0.000000  0.000000 -0.000000  0.000000  0.000000
  1O   1dx2y2    -0.067366  0.014908  0.000000  0.000000  0.032664 -0.000000
  1O   1dxy       0.000000 -0.000000  0.014666  0.000823 -0.000000 -0.046601
  2O   1s        -0.103494  0.093475 -0.000000 -0.000000  0.032486  0.000000
  2O   2s        -0.318111  0.325522 -0.000000 -0.000000  0.064113  0.000000
  2O   3s        -0.349046  0.410715  0.000000  0.000000  0.619566 -0.000000
  2O   1pz        0.000000  0.000000 -0.036417  0.649169 -0.000000 -0.038288
  2O   1px        0.012741 -0.455208  0.000000  0.000000  0.755049 -0.000000
  2O   1py        0.000000 -0.000000  0.649169  0.036417 -0.000000  0.661294
  2O   2pz       -0.000000  0.000000  0.045381 -0.808969  0.000000  0.065213
  2O   2px       -0.947387  1.193725  0.000000  0.000000 -0.465963 -0.000000
  2O   2py       -0.000000  0.000000 -0.808969 -0.045381  0.000000 -1.126330
  2O   1dz2      -0.038894 -0.008614  0.000000  0.000000  0.018860 -0.000000
  2O   1dxz       0.000000  0.000000 -0.000823  0.014667 -0.000000 -0.002698
  2O   1dyz       0.000000 -0.000000  0.000000  0.000000 -0.000000  0.000000
  2O   1dx2y2     0.067366  0.014919 -0.000000 -0.000000 -0.032666 -0.000000
  2O   1dxy       0.000000  0.000000  0.014667  0.000823 -0.000000  0.046601
                     24        25        26        27        28        29
                   1.09279   1.23281   1.52889   1.52889   1.56532   1.57445
                   0.00000   0.00000   0.00000   0.00000   0.00000   0.00000
                  --------  --------  --------  --------  --------  --------
  0C   1s         0.000000  0.092411 -0.000000 -0.000000  0.000001  0.000000
  0C   2s        -0.000000 -1.456692  0.000000  0.000000 -0.000002 -0.000000
  0C   3s        -0.000000 -2.534250  0.000000 -0.000000 -0.000014 -0.000000
  0C   1pz        0.048799  0.000000  0.000000  0.000000  0.000000  0.000000
  0C   1px       -0.000000  0.000007 -0.000000 -0.000000 -0.471487  0.000000
  0C   1py        0.002825  0.000000  0.000000 -0.000000  0.000000 -0.000002
  0C   2pz       -0.975282  0.000000 -0.000000 -0.000000 -0.000000 -0.000000
  0C   2px       -0.000000  0.000055 -0.000000 -0.000000 -4.289578 -0.000000
  0C   2py       -0.056468  0.000000 -0.000000  0.000000 -0.000000  0.000000
  0C   1dz2       0.000000  0.177420 -0.000000  0.826362  0.000004  0.000000
  0C   1dxz      -0.000001 -0.000000  0.000000 -0.000000  0.000000  0.120854
  0C   1dyz      -0.000000  0.000000  0.954205  0.000000 -0.000000 -0.000000
  0C   1dx2y2    -0.000000 -0.307300 -0.000000  0.477100 -0.000007 -0.000000
  0C   1dxy      -0.000000  0.000000 -0.000000  0.000000  0.000000 -0.838220
  1O   1s        -0.000000 -0.181736 -0.000000 -0.000000 -0.232176 -0.000000
  1O   2s        -0.000000 -1.292691 -0.000000 -0.000000 -1.721776 -0.000000
  1O   3s         0.000000  2.970359  0.000000  0.000000  4.985189  0.000001
  1O   1pz       -0.661324  0.000000 -0.000000 -0.000000 -0.000000 -0.028585
  1O   1px       -0.000000 -0.047669  0.000000  0.000000  0.086141  0.000000
  1O   1py       -0.038290  0.000000 -0.000000  0.000000 -0.000000  0.198260
  1O   2pz        1.126362 -0.000000  0.000000  0.000000  0.000000 -0.016976
  1O   2px       -0.000000 -1.172258 -0.000000 -0.000000 -1.165186 -0.000000
  1O   2py        0.065215 -0.000000  0.000000 -0.000000  0.000000  0.117744
  1O   1dz2      -0.000000  0.009201 -0.000000  0.122562  0.037902  0.000000
  1O   1dxz       0.046601 -0.000000  0.000000  0.000000 -0.000000 -0.033342
  1O   1dyz      -0.000000 -0.000000  0.141514  0.000000 -0.000000  0.000000
  1O   1dx2y2     0.000000 -0.015937 -0.000000  0.070761 -0.065649  0.000000
  1O   1dxy       0.002698 -0.000000  0.000000 -0.000000 -0.000000  0.231258
  2O   1s        -0.000000 -0.181741  0.000000  0.000000  0.232172  0.000000
  2O   2s        -0.000000 -1.292727  0.000000  0.000000  1.721749  0.000000
  2O   3s         0.000000  2.970497 -0.000000 -0.000000 -4.985152 -0.000001
  2O   1pz       -0.661294  0.000000 -0.000000 -0.000000  0.000000  0.028586
  2O   1px       -0.000000  0.047676  0.000000  0.000000  0.086135  0.000000
  2O   1py       -0.038288  0.000000 -0.000000  0.000000  0.000000 -0.198267
  2O   2pz        1.126330 -0.000000  0.000000  0.000000 -0.000000  0.016976
  2O   2px        0.000000  1.172283 -0.000000 -0.000000 -1.165148 -0.000000
  2O   2py        0.065213 -0.000000  0.000000 -0.000000 -0.000000 -0.117739
  2O   1dz2      -0.000000  0.009202 -0.000000  0.122566 -0.037902 -0.000000
  2O   1dxz      -0.046601  0.000000 -0.000000 -0.000000 -0.000000 -0.033343
  2O   1dyz      -0.000000  0.000000  0.141519  0.000000 -0.000000 -0.000000
  2O   1dx2y2     0.000000 -0.015938 -0.000000  0.070764  0.065649 -0.000000
  2O   1dxy      -0.002698  0.000000 -0.000000  0.000000 -0.000000  0.231258
                     30        31        32        33        34        35
                   1.57445   2.54913   2.54919   2.66846   2.66851   2.76505
                   0.00000   0.00000   0.00000   0.00000   0.00000   0.00000
                  --------  --------  --------  --------  --------  --------
  0C   1s         0.000000  0.000000 -0.000000 -0.000000  0.000000 -0.000000
  0C   2s        -0.000000 -0.000000  0.000000  0.000000 -0.000000 -0.000000
  0C   3s        -0.000000 -0.000000  0.000000  0.000000 -0.000000 -0.000000
  0C   1pz        0.000002  0.000000 -0.000000 -0.000000  0.000000 -0.325388
  0C   1px       -0.000000 -0.000000  0.000000  0.000000 -0.000000  0.000000
  0C   1py        0.000000 -0.000000 -0.000000  0.000000  0.000000 -0.058248
  0C   2pz       -0.000000 -0.000000 -0.000000 -0.000000  0.000000 -0.197815
  0C   2px        0.000000 -0.000000  0.000000  0.000000 -0.000000  0.000000
  0C   2py       -0.000000 -0.000000 -0.000000  0.000000  0.000000 -0.035411
  0C   1dz2       0.000000  0.000016  0.000000 -0.282676 -0.000000 -0.000000
  0C   1dxz       0.838220  0.000000 -0.000000  0.000000 -0.000000  0.000005
  0C   1dyz      -0.000000  0.000000 -0.000019 -0.000000  0.326395  0.000000
  0C   1dx2y2    -0.000000  0.000009 -0.000000 -0.163203  0.000000  0.000000
  0C   1dxy       0.120854 -0.000000 -0.000000 -0.000000  0.000000  0.000001
  1O   1s         0.000000 -0.000000  0.000000  0.000000 -0.000000 -0.000000
  1O   2s         0.000000 -0.000000  0.000000  0.000000 -0.000000 -0.000000
  1O   3s        -0.000000  0.000000 -0.000000 -0.000000  0.000000  0.000000
  1O   1pz       -0.198260  0.000000 -0.000000 -0.000000  0.000000 -0.083222
  1O   1px       -0.000000 -0.000000 -0.000000 -0.000000  0.000000  0.000000
  1O   1py       -0.028585 -0.000000 -0.000000  0.000000  0.000000 -0.014898
  1O   2pz       -0.117744 -0.000000  0.000000  0.000000 -0.000000  0.238967
  1O   2px        0.000000 -0.000000  0.000000  0.000000 -0.000000 -0.000000
  1O   2py       -0.016976  0.000000  0.000000 -0.000000 -0.000000  0.042778
  1O   1dz2       0.000000  0.612351  0.000000  0.605305 -0.000000 -0.000000
  1O   1dxz      -0.231258  0.000000 -0.000000 -0.000000  0.000000 -0.724396
  1O   1dyz       0.000000  0.000000 -0.707082  0.000000 -0.698948 -0.000000
  1O   1dx2y2    -0.000000  0.353541 -0.000000  0.349473  0.000000  0.000000
  1O   1dxy      -0.033342 -0.000000 -0.000000  0.000000  0.000000 -0.129675
  2O   1s        -0.000000 -0.000000  0.000000  0.000000 -0.000000 -0.000000
  2O   2s        -0.000000 -0.000000  0.000000  0.000000 -0.000000 -0.000000
  2O   3s         0.000000 -0.000000  0.000000 -0.000000  0.000000  0.000000
  2O   1pz        0.198267 -0.000000  0.000000 -0.000000  0.000000 -0.083220
  2O   1px       -0.000000 -0.000000  0.000000  0.000000 -0.000000 -0.000000
  2O   1py        0.028586  0.000000  0.000000  0.000000  0.000000 -0.014897
  2O   2pz        0.117739  0.000000 -0.000000  0.000000 -0.000000  0.238971
  2O   2px        0.000000  0.000000 -0.000000 -0.000000  0.000000  0.000000
  2O   2py        0.016976 -0.000000 -0.000000 -0.000000 -0.000000  0.042779
  2O   1dz2      -0.000000 -0.612399 -0.000000  0.605256  0.000000 -0.000000
  2O   1dxz      -0.231258  0.000000 -0.000000  0.000000 -0.000000  0.724398
  2O   1dyz      -0.000000 -0.000000  0.707138  0.000000 -0.698891 -0.000000
  2O   1dx2y2     0.000000 -0.353569 -0.000000  0.349445  0.000000  0.000000
  2O   1dxy      -0.033343 -0.000000 -0.000000 -0.000000 -0.000000  0.129676
                     36        37        38        39        40        41
                   2.76505   2.82733   3.53391   3.54134   3.54134   3.84237
                   0.00000   0.00000   0.00000   0.00000   0.00000   0.00000
                  --------  --------  --------  --------  --------  --------
  0C   1s         0.000000 -0.027882 -0.000001 -0.000000 -0.000000 -0.292455
  0C   2s         0.000001 -0.653603  0.000038  0.000000  0.000000  2.274029
  0C   3s         0.000000 -0.381492  0.000011  0.000000  0.000000  0.975366
  0C   1pz       -0.058248  0.000000 -0.000000 -0.000006  0.000001 -0.000000
  0C   1px        0.000000 -0.000008 -1.285957  0.000000  0.000002 -0.000014
  0C   1py        0.325388  0.000000  0.000000  0.000001  0.000006 -0.000000
  0C   2pz       -0.035411  0.000000 -0.000000 -0.000001  0.000000 -0.000000
  0C   2px        0.000000  0.000011 -1.062582  0.000000  0.000002  0.000012
  0C   2py        0.197815  0.000000 -0.000000  0.000000  0.000001 -0.000000
  0C   1dz2       0.000001 -0.498548 -0.000002 -0.000000 -0.000000 -0.720366
  0C   1dxz       0.000001 -0.000000 -0.000000  0.932898 -0.161861 -0.000000
  0C   1dyz       0.000000 -0.000000  0.000000 -0.000000 -0.000000 -0.000000
  0C   1dx2y2    -0.000001  0.863510  0.000003  0.000000  0.000000  1.247711
  0C   1dxy      -0.000005  0.000000 -0.000002 -0.161861 -0.932898  0.000000
  1O   1s         0.000000 -0.122396 -0.017729  0.000000  0.000000 -0.073220
  1O   2s         0.000001 -0.850437 -0.352846  0.000000  0.000001 -0.251485
  1O   3s        -0.000001  0.878399  1.716595 -0.000000 -0.000003 -1.350696
  1O   1pz       -0.014898  0.000000  0.000000 -0.085409  0.014819 -0.000000
  1O   1px       -0.000001  0.539085 -0.093080  0.000000  0.000000  0.560822
  1O   1py        0.083222  0.000000  0.000000  0.014819  0.085409 -0.000000
  1O   2pz        0.042778 -0.000000  0.000000 -0.224152  0.038891 -0.000000
  1O   2px        0.000001 -0.601751 -0.828944  0.000000  0.000002  0.859912
  1O   2py       -0.238967 -0.000000  0.000000  0.038891  0.224152 -0.000000
  1O   1dz2       0.000000 -0.158373 -0.422387  0.000000  0.000001  0.471163
  1O   1dxz      -0.129675  0.000000 -0.000000  0.782264 -0.135726  0.000000
  1O   1dyz      -0.000000  0.000000 -0.000000 -0.000000  0.000000 -0.000000
  1O   1dx2y2    -0.000000  0.274311  0.731596 -0.000000 -0.000001 -0.816078
  1O   1dxy       0.724396  0.000001 -0.000002 -0.135726 -0.782264  0.000000
  2O   1s         0.000000 -0.122397  0.017728 -0.000000 -0.000000 -0.073222
  2O   2s         0.000001 -0.850457  0.352843 -0.000000 -0.000001 -0.251515
  2O   3s        -0.000001  0.878431 -1.716636  0.000000  0.000003 -1.350680
  2O   1pz       -0.014897  0.000000 -0.000000  0.085413 -0.014820 -0.000000
  2O   1px        0.000001 -0.539091 -0.093091  0.000000  0.000000 -0.560837
  2O   1py        0.083220  0.000000 -0.000000 -0.014820 -0.085413 -0.000000
  2O   2pz        0.042779 -0.000000 -0.000000  0.224156 -0.038892 -0.000000
  2O   2px       -0.000001  0.601761 -0.828965  0.000000  0.000002 -0.859909
  2O   2py       -0.238971 -0.000000 -0.000000 -0.038892 -0.224156 -0.000000
  2O   1dz2       0.000000 -0.158372  0.422394 -0.000000 -0.000001  0.471159
  2O   1dxz       0.129676 -0.000000 -0.000000  0.782268 -0.135726 -0.000000
  2O   1dyz      -0.000000  0.000000  0.000000  0.000000 -0.000000 -0.000000
  2O   1dx2y2    -0.000000  0.274309 -0.731608  0.000000  0.000001 -0.816072
  2O   1dxy      -0.724398 -0.000001 -0.000002 -0.135726 -0.782268 -0.000000

MULLIKEN ATOMIC CHARGES
-----------------------
   0 C :    0.264586
   1 O :   -0.132298
   2 O :   -0.132287
Sum of atomic charges:    0.0000000

LOEWDIN ATOMIC CHARGES
----------------------
   0 C :    0.133755
   1 O :   -0.066883
   2 O :   -0.066872

  Mayer bond orders larger than 0.100000
B(  0-C ,  1-O ) :   2.1723 B(  0-C ,  2-O ) :   2.1723 B(  1-O ,  2-O ) :   0.2703

FINAL SINGLE POINT ENERGY      -188.360450354229

DIPOLE MOMENT
-------------

Method             : SCF
Type of density    : Electron Density
Multiplicity       :   1
Irrep              :   0
Energy             :  -188.3604503542289024 Eh
Relativity type    :
Basis              : AO
                                X                 Y                 Z
Electronic contribution:     -0.000018048       0.000000060       0.000000006
Nuclear contribution   :      0.000000032      -0.000000000      -0.000000000
                        -----------------------------------------
Total Dipole Moment    :     -0.000018016       0.000000059       0.000000006
                        -----------------------------------------
Magnitude (a.u.)       :      0.000018016
Magnitude (Debye)      :      0.000045794

VIBRATIONAL FREQUENCIES
-----------------------

Scaling factor for frequencies =  1.000000000  (already applied!)

Warning: the translational and rotational modes were NOT projected out from the Hessian!
Therefore, the translational and rotational frequencies may be non-zero!

     0:     -10.84 cm**-1  ***imaginary mode***
     1:     -10.84 cm**-1  ***imaginary mode***
     2:      -0.00 cm**-1
     3:       0.00 cm**-1
     4:       0.01 cm**-1
     5:     652.07 cm**-1
     6:     652.07 cm**-1
     7:    1387.77 cm**-1
     8:    2469.87 cm**-1

IR SPECTRUM
-----------

 Mode   freq       eps      Int      T**2         TX        TY        TZ
       cm**-1   L/(mol*cm) km/mol    a.u.
----------------------------------------------------------------------------
  5:    652.07   0.006484   32.77  0.003103  (-0.000000 -0.002668 -0.055641)
  6:    652.07   0.006484   32.77  0.003103  (-0.000000  0.055641 -0.002668)
  7:   1387.77   0.000000    0.00  0.000000  (-0.000003 -0.000000 -0.000000)
  8:   2469.87   0.121129  612.14  0.015304  (-0.123711 -0.000000 -0.000000)

--------------------------
THERMOCHEMISTRY AT 298.15K
--------------------------

Temperature         ...   298.15 K
Pressure            ...     1.00 atm
Total Mass          ...    44.01 AMU
Quasi RRHO          ...     True
Cut-Off Frequency   ...     1.00 cm^-1
The molecule is recognized as being linear

Throughout the following assumptions are being made:
  (1) The electronic state is orbitally nondegenerate
  (2) There are no thermally accessible electronically excited states
  (3) Hindered rotations indicated by low frequency modes are not
      treated as such but are treated as vibrations and this may
      cause some error
  (4) All equations used are the standard statistical mechanics
      equations for an ideal gas
  (5) All vibrations are strictly harmonic

Warning: translational/rotational symmetry breaking observed!
As a result, the following additional assumption(s) will be made:
  (6) The symmetry broken mode(s) are purely rotational
  (7) Each remaining symmetry-preserving rotation contributes
      1/3 of the free-molecule rotational energy/entropy
  (8) All non-zero-frequency librational modes are treated as
      vibrational modes

freq.     652.07  E(vib)   ...       0.08
freq.     652.07  E(vib)   ...       0.08
freq.    1387.77  E(vib)   ...       0.00
freq.    2469.87  E(vib)   ...       0.00

------------
INNER ENERGY
------------

The inner energy is: U= E(el) + E(ZPE) + E(vib) + E(rot) + E(trans)
    E(el)   - is the total energy from the electronic structure calculation
              = E(kin-el) + E(nuc-el) + E(el-el) + E(nuc-nuc)
    E(ZPE)  - the the zero temperature vibrational energy from the frequency calculation
    E(vib)  - the the finite temperature correction to E(ZPE) due to population
              of excited vibrational states
    E(rot)  - is the rotational thermal energy
    E(trans)- is the translational thermal energy

Summary of contributions to the inner energy U:
Electronic energy                ...   -188.36045035 Eh
Zero point energy                ...      0.01175939 Eh       7.38 kcal/mol
Thermal vibrational correction   ...      0.00027487 Eh       0.17 kcal/mol
Thermal rotational correction    ...      0.00000000 Eh       0.00 kcal/mol
Thermal translational correction ...      0.00141627 Eh       0.89 kcal/mol
-----------------------------------------------------------------------
Total thermal energy                   -188.34699982 Eh

Summary of corrections to the electronic energy:
(perhaps to be used in another calculation)
Total thermal correction                  0.00169115 Eh       1.06 kcal/mol
Non-thermal (ZPE) correction              0.01175939 Eh       7.38 kcal/mol
-----------------------------------------------------------------------
Total correction                          0.01345054 Eh       8.44 kcal/mol

--------
ENTHALPY
--------

The enthalpy is H = U + kB*T
                kB is Boltzmann's constant
Total thermal energy              ...   -188.34699982 Eh
Thermal Enthalpy correction       ...      0.00094421 Eh       0.59 kcal/mol
-----------------------------------------------------------------------
Total Enthalpy                    ...   -188.34605561 Eh

Note: Rotational entropy computed according to Herzberg
Infrared and Raman Spectra, Chapter V,1, Van Nostrand Reinhold, 1945
Point Group:  D(inf)h, Symmetry Number:   1
Rotational constants in cm-1:     0.000000     0.389304     0.389304

Vibrational entropy computed according to the QRRHO of S. Grimme
Chem.Eur.J. 2012 18 9955 using a reference frequency of 100.0 cm-1

-------
ENTROPY
-------

The entropy contributions are T*S = T*(S(el)+S(vib)+S(rot)+S(trans))
     S(el)   - electronic entropy
     S(vib)  - vibrational entropy
     S(rot)  - rotational entropy
     S(trans)- translational entropy
The entropies will be listed as multiplied by the temperature to get
units of energy

Electronic entropy                ...      0.00000000 Eh      0.00 kcal/mol
Vibrational entropy               ...      0.00035936 Eh      0.23 kcal/mol
Rotational entropy                ...      0.00000000 Eh      0.00 kcal/mol
Translational entropy             ...      0.01770880 Eh     11.11 kcal/mol
-----------------------------------------------------------------------
Final entropy term                ...      0.01806816 Eh     11.34 kcal/mol

-------------------
GIBBS FREE ENERGY
-------------------

The Gibbs free energy is G = H - T*S

Total enthalpy                    ...   -188.34605561 Eh
Total entropy correction          ...     -0.01806816 Eh    -11.34 kcal/mol
-----------------------------------------------------------------------
Final Gibbs free energy         ...   -188.36412377 Eh

For completeness - the Gibbs free energy minus the electronic energy
G-E(el)                           ...     -0.00367342 Eh     -2.31 kcal/mol

                             ****ORCA TERMINATED NORMALLY****
TOTAL RUN TIME: 0 days 0 hours 0 minutes 21 seconds 826 msec
