                         Program Version 6.0.1  -  RELEASE   -
|  1> ! B3LYP def2-TZVPD Opt NumFreq EnGrad TightSCF
|  2> %maxcore 2000
|  3> %geom
|  4> Calc_Hess true
|  5> Recalc_Hess 5
|  6> end
|  7> %output
|  8>   PrintLevel 2
|  9> end
| 10> %elprop Polar 1 end
| 11> * xyz 0 1
| 12> C    0.000000    0.000000    0.000000
| 13> O    1.200000    0.000000    0.000000
| 14> O   -1.200000    0.000000    0.000000
| 15> *
| 16>
| 17>
| 18>                          ****END OF INPUT****

CARTESIAN COORDINATES (ANGSTROEM)
---------------------------------
  C      0.000000    0.000000    0.000000
  O      1.200000    0.000000    0.000000
  O     -1.200000    0.000000    0.000000

ORBITAL ENERGIES
----------------

  NO   OCC          E(Eh)            E(eV)
   0   2.0000     -19.221692      -523.0488
   1   2.0000     -19.221585      -523.0459
   2   2.0000     -10.380390      -282.4648
   3   2.0000      -1.151041       -31.3214
   4   2.0000      -1.111366       -30.2418
   5   2.0000      -0.577336       -15.7101
   6   2.0000      -0.526823       -14.3356
   7   2.0000      -0.511584       -13.9209
   8   2.0000      -0.511584       -13.9209
   9   2.0000      -0.379826       -10.3356
  10   2.0000      -0.379826       -10.3356
  11   0.0000      -0.023050        -0.6272
  12   0.0000      -0.002049        -0.0558
  13   0.0000      -0.002049        -0.0558
  14   0.0000       0.055778         1.5178
  15   0.0000       0.057715         1.5705

Total SCF time: 0 days 0 hours 0 min 3 sec
Finished LeanSCF after   3.3 sec

FINAL SINGLE POINT ENERGY      -188.582292358570

DIPOLE MOMENT
-------------

Method             : SCF
Type of density    : Electron Density
Multiplicity       :   1
Irrep              :   0
Energy             :  -188.5822923585701005 Eh
Relativity type    :
Basis              : AO
                                X                 Y                 Z
Electronic contribution:     -0.000001862       0.000000056      -0.000000020
Nuclear contribution   :      0.000000000       0.000000000       0.000000000
                        -----------------------------------------
Total Dipole Moment    :     -0.000001862       0.000000056      -0.000000020
                        -----------------------------------------
Magnitude (a.u.)       :      0.000001863
Magnitude (Debye)      :      0.000004736

VIBRATIONAL FREQUENCIES
-----------------------

Scaling factor for frequencies =  1.000000000  (already applied!)

     0:       0.00 cm**-1
     1:       0.00 cm**-1
     2:       0.00 cm**-1
     3:       0.00 cm**-1
     4:       0.00 cm**-1
     5:     759.29 cm**-1
     6:     759.32 cm**-1
     7:    1186.46 cm**-1
     8:    2050.91 cm**-1

IR SPECTRUM
-----------

 Mode   freq       eps      Int      T**2         TX        TY        TZ
       cm**-1   L/(mol*cm) km/mol    a.u.
----------------------------------------------------------------------------
  5:    759.29   0.005426   27.42  0.002230  (-0.000000 -0.037329  0.028926)
  6:    759.32   0.005426   27.42  0.002230  ( 0.000002 -0.028926 -0.037328)
  7:   1186.46   0.000000    0.00  0.000000  ( 0.000001  0.000002 -0.000001)
  8:   2050.91   0.120566  609.29  0.018345  ( 0.135444  0.000000  0.000000)

--------------------------
THERMOCHEMISTRY AT 298.15K
--------------------------

Temperature         ...   298.15 K
Pressure            ...     1.00 atm
Total Mass          ...    44.01 AMU
Quasi RRHO          ...     True
Cut-Off Frequency   ...     1.00 cm^-1
The molecule is recognized as being linear

Throughout the following assumptions are being made:
  (1) The electronic state is orbitally nondegenerate
  (2) There are no thermally accessible electronically excited states
  (3) Hindered rotations indicated by low frequency modes are not
      treated as such but are treated as vibrations and this may
      cause some error
  (4) All equations used are the standard statistical mechanics
      equations for an ideal gas
  (5) All vibrations are strictly harmonic

freq.     759.29  E(vib)   ...       0.06
freq.     759.32  E(vib)   ...       0.06
freq.    1186.46  E(vib)   ...       0.01
freq.    2050.91  E(vib)   ...       0.00

------------
INNER ENERGY
------------

The inner energy is: U= E(el) + E(ZPE) + E(vib) + E(rot) + E(trans)
    E(el)   - is the total energy from the electronic structure calculation
              = E(kin-el) + E(nuc-el) + E(el-el) + E(nuc-nuc)
    E(ZPE)  - the the zero temperature vibrational energy from the frequency calculation
    E(vib)  - the the finite temperature correction to E(ZPE) due to population
              of excited vibrational states
    E(rot)  - is the rotational thermal energy
    E(trans)- is the translational thermal energy

Summary of contributions to the inner energy U:
Electronic energy                ...   -188.58229236 Eh
Zero point energy                ...      0.01083493 Eh       6.80 kcal/mol
Thermal vibrational correction   ...      0.00020015 Eh       0.13 kcal/mol
Thermal rotational correction    ...      0.00094418 Eh       0.59 kcal/mol
Thermal translational correction ...      0.00141627 Eh       0.89 kcal/mol
-----------------------------------------------------------------------
Total thermal energy                   -188.56889683 Eh

Summary of corrections to the electronic energy:
(perhaps to be used in another calculation)
Total thermal correction                  0.00256061 Eh       1.61 kcal/mol
Non-thermal (ZPE) correction              0.01083493 Eh       6.80 kcal/mol
-----------------------------------------------------------------------
Total correction                          0.01339553 Eh       8.41 kcal/mol

--------
ENTHALPY
--------

The enthalpy is H = U + kB*T
                kB is Boltzmann's constant
Total thermal energy              ...   -188.56889683 Eh
Thermal Enthalpy correction       ...      0.00094421 Eh       0.59 kcal/mol
-----------------------------------------------------------------------
Total Enthalpy                    ...   -188.56795262 Eh

Note: Rotational entropy computed according to Herzberg
Infrared and Raman Spectra, Chapter V,1, Van Nostrand Reinhold, 1945
Point Group:  D(inf)h, Symmetry Number:   1
Rotational constants in cm-1:     0.000000     0.365857     0.365857

Vibrational entropy computed according to the QRRHO of S. Grimme
Chem.Eur.J. 2012 18 9955 using a reference frequency of 100.0 cm-1

-------
ENTROPY
-------

The entropy contributions are T*S = T*(S(el)+S(vib)+S(rot)+S(trans))
     S(el)   - electronic entropy
     S(vib)  - vibrational entropy
     S(rot)  - rotational entropy
     S(trans)- translational entropy
The entropies will be listed as multiplied by the temperature to get
units of energy

Electronic entropy                ...      0.00000000 Eh      0.00 kcal/mol
Vibrational entropy               ...      0.00025249 Eh      0.16 kcal/mol
Rotational entropy                ...      0.00692965 Eh      4.35 kcal/mol
Translational entropy             ...      0.01770880 Eh     11.11 kcal/mol
-----------------------------------------------------------------------
Final entropy term                ...      0.02489093 Eh     15.62 kcal/mol

-------------------
GIBBS FREE ENERGY
-------------------

The Gibbs free energy is G = H - T*S

Total enthalpy                    ...   -188.56795262 Eh
Total entropy correction          ...     -0.02489093 Eh    -15.62 kcal/mol
-----------------------------------------------------------------------
Final Gibbs free energy         ...   -188.59284355 Eh

For completeness - the Gibbs free energy minus the electronic energy
G-E(el)                           ...     -0.01055119 Eh     -6.62 kcal/mol

                             ****ORCA TERMINATED NORMALLY****
TOTAL RUN TIME: 0 days 0 hours 3 minutes 57 seconds 964 msec
