                         Program Version 6.0.1  -  RELEASE   -
|  1> ! B3LYP def2-SVP TightSCF Freq
|  2> %output
|  3>   PrintLevel 5
|  4> end
|  5> * xyz 0 1
|  6>    C         -0.0000008287          0.0000000183          0.0000000024
|  7>    O          0.6018162718         -0.0000000107         -0.0000000022
|  8>    O         -0.6018152429         -0.0000000088         -0.0000000013
|  9> *
| 10> %elprop
| 11>  Polar 1
| 12> end
| 13>
| 14>                          ****END OF INPUT****

CARTESIAN COORDINATES (ANGSTROEM)
---------------------------------
  C     -0.000001    0.000000    0.000000
  O      0.601816   -0.000000   -0.000000
  O     -0.601815   -0.000000   -0.000000

 Total Charge           Charge          ....    0
 Multiplicity           Mult            ....    1
 Number of Electrons    NEL             ....   22
 Basis Dimension        Dim             ....   42

ORBITAL ENERGIES
----------------

  NO   OCC          E(Eh)            E(eV)
   0   2.0000     -19.223219      -523.0904
   1   2.0000     -19.222737      -523.0773
   2   2.0000     -10.812743      -294.2297
   3   2.0000      -1.269480       -34.5443
   4   2.0000      -1.185173       -32.2502
   5   2.0000      -0.999839       -27.2070
   6   2.0000      -0.999839       -27.2070
   7   2.0000      -0.521164       -14.1816
   8   2.0000      -0.372649       -10.1403
   9   2.0000      -0.372649       -10.1403
  10   2.0000      -0.341093        -9.2816
  11   0.0000       0.153435         4.1752
  12   0.0000       0.221264         6.0209
  13   0.0000       0.221264         6.0209
  14   0.0000       0.314128         8.5478
  15   0.0000       0.736496        20.0411

------------------
MOLECULAR ORBITALS (RHF, ROHF)
------------------
                      0         1         2         3         4         5
                 -19.22322 -19.22274 -10.81274  -1.26948  -1.18517  -0.99984
                   2.00000   2.00000   2.00000   2.00000   2.00000   2.00000
                  --------  --------  --------  --------  --------  --------
  0C   1s        -0.004507 -0.000032  0.971105  0.000006 -0.376325 -0.000000
  0C   2s         0.043402  0.000305 -0.131075  0.000013 -0.060067  0.000000
  0C   3s        -0.002213 -0.000016 -0.011607 -0.000001  0.057279  0.000000
  0C   1pz       -0.000000  0.000000 -0.000000 -0.000000 -0.000000 -0.520414
  0C   1px       -0.000034  0.004840 -0.000001 -0.855268 -0.000016  0.000000
  0C   1py       -0.000000  0.000000 -0.000000 -0.000000 -0.000000  0.061822
  0C   2pz       -0.000000 -0.000000 -0.000000 -0.000000 -0.000000 -0.134296
  0C   2px        0.000125 -0.017844  0.000000 -0.067009 -0.000001 -0.000000
  0C   2py       -0.000000 -0.000000 -0.000000 -0.000000 -0.000000  0.015953
  0C   1dz2       0.004293  0.000030  0.009501 -0.000002  0.054567  0.000000
  0C   1dxz      -0.000000  0.000000  0.000000  0.000000  0.000000 -0.000001
  0C   1dyz       0.000000  0.000000  0.000000 -0.000000  0.000000  0.000000
  0C   1dx2y2    -0.007437 -0.000052 -0.016457  0.000004 -0.094513  0.000000
  0C   1dxy      -0.000000  0.000000  0.000000  0.000000  0.000000  0.000000
  1O   1s         0.692121  0.701923  0.032631 -0.243782  0.202991  0.000000
  1O   2s        -0.029960 -0.039992  0.064047 -0.142447  0.527269 -0.000000
  1O   3s        -0.006665  0.034723  0.035790  0.244623  0.168699 -0.000000
  1O   1pz       -0.000000 -0.000000  0.000000 -0.000000 -0.000000 -0.363741
  1O   1px        0.009644  0.010662 -0.037026  0.264619 -0.142304 -0.000000
  1O   1py        0.000000 -0.000000  0.000000 -0.000000 -0.000000  0.043210
  1O   2pz       -0.000000  0.000000  0.000000  0.000000  0.000000  0.042461
  1O   2px        0.008294 -0.001987 -0.015913 -0.132349 -0.042670  0.000000
  1O   2py       -0.000000 -0.000000  0.000000  0.000000  0.000000 -0.005044
  1O   1dz2       0.001152  0.002828 -0.003235  0.031689  0.010880 -0.000000
  1O   1dxz       0.000000  0.000000 -0.000000  0.000000  0.000000  0.041184
  1O   1dyz      -0.000000 -0.000000 -0.000000  0.000000 -0.000000 -0.000000
  1O   1dx2y2    -0.001995 -0.004898  0.005603 -0.054887 -0.018844  0.000000
  1O   1dxy       0.000000  0.000000 -0.000000  0.000000  0.000000 -0.004892
  2O   1s         0.701926 -0.692118  0.032632  0.243775  0.203001 -0.000000
  2O   2s        -0.030519  0.039566  0.064046  0.142415  0.527276 -0.000000
  2O   3s        -0.006176 -0.034813  0.035789 -0.244633  0.168691 -0.000000
  2O   1pz        0.000000  0.000000  0.000000  0.000000  0.000000 -0.363747
  2O   1px       -0.009793  0.010525  0.037026  0.264611  0.142311 -0.000000
  2O   1py        0.000000  0.000000  0.000000  0.000000 -0.000000  0.043211
  2O   2pz        0.000000  0.000000  0.000000 -0.000000  0.000000  0.042460
  2O   2px       -0.008265 -0.002104  0.015912 -0.132352  0.042665  0.000000
  2O   2py        0.000000  0.000000  0.000000 -0.000000  0.000000 -0.005044
  2O   1dz2       0.001191 -0.002811 -0.003235 -0.031689  0.010879 -0.000000
  2O   1dxz      -0.000000 -0.000000  0.000000  0.000000 -0.000000 -0.041185
  2O   1dyz      -0.000000 -0.000000 -0.000000  0.000000 -0.000000 -0.000000
  2O   1dx2y2    -0.002063  0.004869  0.005603  0.054888 -0.018843 -0.000000
  2O   1dxy      -0.000000  0.000000  0.000000  0.000000 -0.000000  0.004892
                      6         7         8         9        10        11
                  -0.99984  -0.52116  -0.37265  -0.37265  -0.34109   0.15343
                   2.00000   2.00000   2.00000   2.00000   2.00000   0.00000
                  --------  --------  --------  --------  --------  --------
  0C   1s         0.000000 -0.000001  0.000000  0.000000 -0.294460  0.058475
  0C   2s         0.000000  0.000006  0.000000  0.000000 -0.837954  0.721109
  0C   3s         0.000000  0.000001  0.000000  0.000000 -0.261027  3.231988
  0C   1pz       -0.061822 -0.000000 -0.000000 -0.000001  0.000000 -0.000000
  0C   1px        0.000000 -0.411125  0.000000  0.000000 -0.000002  0.000001
  0C   1py       -0.520414 -0.000000 -0.000001  0.000000  0.000000  0.000000
  0C   2pz       -0.015953 -0.000000 -0.000000 -0.000001  0.000000  0.000000
  0C   2px       -0.000000  0.117366 -0.000000 -0.000000  0.000001 -0.000004
  0C   2py       -0.134296 -0.000000 -0.000001  0.000000  0.000000  0.000000
  0C   1dz2      -0.000000 -0.000001 -0.000000 -0.000000  0.092637  0.041834
  0C   1dxz      -0.000000  0.000000 -0.000307 -0.009114 -0.000000  0.000000
  0C   1dyz       0.000000 -0.000000 -0.000000  0.000000 -0.000000  0.000000
  0C   1dx2y2     0.000000  0.000002  0.000000  0.000000 -0.160452 -0.072458
  0C   1dxy      -0.000001  0.000000 -0.009114  0.000307  0.000000  0.000000
  1O   1s        -0.000000  0.079878  0.000000  0.000000 -0.053282 -0.086782
  1O   2s        -0.000000  0.310534  0.000000 -0.000000  0.187603 -0.039663
  1O   3s        -0.000000  0.373036 -0.000000 -0.000000  0.106234 -1.908950
  1O   1pz       -0.043210 -0.000000 -0.019081 -0.566315 -0.000000 -0.000000
  1O   1px       -0.000000  0.432170 -0.000000  0.000000 -0.507717 -0.039128
  1O   1py       -0.363741 -0.000000 -0.566315  0.019081  0.000000 -0.000000
  1O   2pz        0.005044 -0.000000 -0.011582 -0.343749 -0.000000 -0.000000
  1O   2px        0.000000  0.067224 -0.000000  0.000000 -0.421182  0.244101
  1O   2py        0.042461 -0.000000 -0.343749  0.011582  0.000000 -0.000000
  1O   1dz2      -0.000000  0.026359 -0.000000 -0.000000  0.006776  0.010033
  1O   1dxz       0.004892  0.000000  0.001960  0.058174  0.000000  0.000000
  1O   1dyz      -0.000000  0.000000 -0.000000 -0.000000  0.000000 -0.000000
  1O   1dx2y2     0.000000 -0.045655  0.000000  0.000000 -0.011736 -0.017378
  1O   1dxy       0.041184  0.000000  0.058174 -0.001960 -0.000000  0.000000
  2O   1s        -0.000000 -0.079877 -0.000000  0.000000 -0.053281 -0.086782
  2O   2s        -0.000000 -0.310539 -0.000000 -0.000000  0.187603 -0.039664
  2O   3s        -0.000000 -0.373036  0.000000  0.000000  0.106236 -1.908963
  2O   1pz       -0.043211  0.000000  0.019081  0.566312  0.000000 -0.000000
  2O   1px        0.000000  0.432169 -0.000000 -0.000000  0.507719  0.039128
  2O   1py       -0.363747  0.000000  0.566312 -0.019081  0.000000 -0.000000
  2O   2pz        0.005044  0.000000  0.011582  0.343747  0.000000 -0.000000
  2O   2px       -0.000000  0.067223 -0.000000 -0.000000  0.421183 -0.244102
  2O   2py        0.042460  0.000000  0.343747 -0.011582  0.000000 -0.000000
  2O   1dz2      -0.000000 -0.026359  0.000000  0.000000  0.006776  0.010033
  2O   1dxz      -0.004892  0.000000  0.001960  0.058174  0.000000  0.000000
  2O   1dyz      -0.000000 -0.000000  0.000000  0.000000  0.000000  0.000000
  2O   1dx2y2     0.000000  0.045655 -0.000000 -0.000000 -0.011736 -0.017378
  2O   1dxy      -0.041185  0.000000  0.058174 -0.001960  0.000000 -0.000000
                     12        13        14        15        16        17
                   0.22126   0.22126   0.31413   0.73650   0.80575   0.80575
                   0.00000   0.00000   0.00000   0.00000   0.00000   0.00000
                  --------  --------  --------  --------  --------  --------
  0C   1s         0.000000 -0.000000 -0.000001  0.261214 -0.000000 -0.000000
  0C   2s         0.000000 -0.000000 -0.000003 -5.063389  0.000000  0.000000
  0C   3s        -0.000000  0.000000 -0.000008 -1.666317  0.000000 -0.000000
  0C   1pz        0.164972  0.155485 -0.000000  0.000000 -0.000056  0.000038
  0C   1px       -0.000000  0.000000 -0.096688  0.000003 -0.000000 -0.000000
  0C   1py       -0.155485  0.164972 -0.000000  0.000000  0.000038  0.000056
  0C   2pz       -1.229697 -1.158984 -0.000000  0.000000 -0.000085  0.000058
  0C   2px        0.000000  0.000000 -3.207931 -0.000004  0.000000  0.000000
  0C   2py        1.158984 -1.229697  0.000000  0.000000  0.000058  0.000085
  0C   1dz2      -0.000000  0.000000 -0.000000  0.059460 -0.000000  0.000000
  0C   1dxz       0.000000  0.000000 -0.000000  0.000000  0.352748 -0.240106
  0C   1dyz      -0.000000 -0.000000 -0.000000  0.000000 -0.000000  0.000000
  0C   1dx2y2     0.000000 -0.000000  0.000000 -0.102987 -0.000000 -0.000000
  0C   1dxy      -0.000000  0.000000 -0.000000  0.000000 -0.240106 -0.352748
  1O   1s         0.000000 -0.000000  0.061720 -0.017929  0.000000  0.000000
  1O   2s        -0.000000  0.000000  0.002267  0.310961 -0.000000 -0.000000
  1O   3s         0.000000 -0.000000  2.860410  2.687755  0.000001  0.000001
  1O   1pz        0.085068  0.080176  0.000000 -0.000000  0.292486 -0.199087
  1O   1px        0.000000 -0.000000  0.153760  0.293925  0.000000  0.000000
  1O   1py       -0.080176  0.085068  0.000000 -0.000000 -0.199087 -0.292486
  1O   2pz        0.316693  0.298482  0.000000 -0.000000 -0.968097  0.658956
  1O   2px        0.000000 -0.000000  0.034720 -1.743522 -0.000000 -0.000001
  1O   2py       -0.298482  0.316693  0.000000 -0.000000  0.658956  0.968097
  1O   1dz2      -0.000000  0.000000 -0.000366 -0.027185 -0.000000 -0.000000
  1O   1dxz      -0.022702 -0.021396 -0.000000 -0.000000  0.042799 -0.029132
  1O   1dyz       0.000000  0.000000  0.000000  0.000000 -0.000000  0.000000
  1O   1dx2y2     0.000000 -0.000000  0.000635  0.047085 -0.000000  0.000000
  1O   1dxy       0.021396 -0.022702 -0.000000 -0.000000 -0.029132 -0.042799
  2O   1s         0.000000 -0.000000 -0.061719 -0.017930 -0.000000 -0.000000
  2O   2s        -0.000000  0.000000 -0.002268  0.310966  0.000000  0.000000
  2O   3s         0.000000 -0.000000 -2.860397  2.687781 -0.000001 -0.000001
  2O   1pz        0.085068  0.080176 -0.000000 -0.000000 -0.292471  0.199077
  2O   1px       -0.000000  0.000000  0.153761 -0.293924  0.000000  0.000000
  2O   1py       -0.080176  0.085068 -0.000000 -0.000000  0.199077  0.292471
  2O   2pz        0.316692  0.298481 -0.000000 -0.000000  0.968246 -0.659058
  2O   2px       -0.000000  0.000000  0.034727  1.743533 -0.000000 -0.000001
  2O   2py       -0.298481  0.316692 -0.000000 -0.000000 -0.659058 -0.968246
  2O   1dz2      -0.000000  0.000000  0.000366 -0.027185  0.000000  0.000000
  2O   1dxz       0.022702  0.021396 -0.000000  0.000000  0.042792 -0.029128
  2O   1dyz       0.000000  0.000000 -0.000000  0.000000  0.000000 -0.000000
  2O   1dx2y2     0.000000 -0.000000 -0.000635  0.047086  0.000000 -0.000000
  2O   1dxy      -0.021396  0.022702 -0.000000  0.000000 -0.029128 -0.042792
                     18        19        20        21        22        23
                   0.81870   0.81870   0.84526   1.22443   1.35749   1.35749
                   0.00000   0.00000   0.00000   0.00000   0.00000   0.00000
                  --------  --------  --------  --------  --------  --------
  0C   1s         0.000000 -0.000000  0.000000  0.048442  0.000000  0.000000
  0C   2s        -0.000001  0.000002 -0.000002 -0.100259 -0.000000 -0.000000
  0C   3s        -0.000000  0.000000 -0.000001 -3.224333 -0.000000 -0.000000
  0C   1pz        0.844171  0.776846  0.000000  0.000000 -0.000004  0.000001
  0C   1px       -0.000000  0.000000  0.561595 -0.000003 -0.000000  0.000000
  0C   1py       -0.776846  0.844171 -0.000000  0.000000 -0.000001 -0.000004
  0C   2pz        1.244016  1.144803  0.000000 -0.000000  0.000017 -0.000003
  0C   2px        0.000000 -0.000000 -0.972480  0.000003  0.000000 -0.000000
  0C   2py       -1.144803  1.244016  0.000000 -0.000000  0.000003  0.000017
  0C   1dz2       0.000000 -0.000000 -0.000001 -0.295166 -0.000000  0.743015
  0C   1dxz       0.000020  0.000018 -0.000000 -0.000000 -0.000000  0.000000
  0C   1dyz       0.000000  0.000000 -0.000000  0.000000 -0.857965 -0.000001
  0C   1dx2y2    -0.000000  0.000000  0.000001  0.511242 -0.000000  0.428980
  0C   1dxy      -0.000018  0.000020 -0.000000 -0.000000 -0.000000 -0.000000
  1O   1s         0.000000 -0.000000  0.010947 -0.208189 -0.000000 -0.000000
  1O   2s         0.000000 -0.000000  0.046182 -2.183187 -0.000000 -0.000000
  1O   3s         0.000001 -0.000001 -2.885084  3.342527  0.000000  0.000000
  1O   1pz       -0.113873 -0.104792 -0.000000 -0.000000  0.000009 -0.000001
  1O   1px        0.000000 -0.000000 -0.114098 -0.130034  0.000000 -0.000000
  1O   1py        0.104792 -0.113873 -0.000000 -0.000000  0.000001  0.000009
  1O   2pz       -1.106211 -1.017987  0.000000  0.000000 -0.000013  0.000002
  1O   2px       -0.000000  0.000001  2.853521 -0.137017 -0.000000 -0.000000
  1O   2py        1.017987 -1.106211  0.000000  0.000000 -0.000002 -0.000013
  1O   1dz2      -0.000000  0.000000  0.008377 -0.019658 -0.000000  0.114617
  1O   1dxz      -0.052866 -0.048650 -0.000000 -0.000000  0.000002 -0.000000
  1O   1dyz       0.000000  0.000000  0.000000  0.000000 -0.132344 -0.000000
  1O   1dx2y2     0.000000 -0.000000 -0.014510  0.034049 -0.000000  0.066174
  1O   1dxy       0.048650 -0.052866 -0.000000 -0.000000  0.000000  0.000002
  2O   1s         0.000000 -0.000000 -0.010948 -0.208189 -0.000000 -0.000000
  2O   2s         0.000000 -0.000000 -0.046184 -2.183195 -0.000000 -0.000000
  2O   3s         0.000000 -0.000001  2.885088  3.342548  0.000000  0.000000
  2O   1pz       -0.113905 -0.104820  0.000000 -0.000000  0.000009 -0.000001
  2O   1px       -0.000000  0.000000 -0.114099  0.130036  0.000000  0.000000
  2O   1py        0.104820 -0.113905  0.000000 -0.000000  0.000001  0.000009
  2O   2pz       -1.106114 -1.017898 -0.000000  0.000000 -0.000013  0.000002
  2O   2px        0.000000 -0.000001  2.853522  0.137018  0.000000  0.000000
  2O   2py        1.017898 -1.106114 -0.000000  0.000000 -0.000002 -0.000013
  2O   1dz2      -0.000000  0.000000 -0.008377 -0.019658 -0.000000  0.114617
  2O   1dxz       0.052871  0.048654 -0.000000  0.000000 -0.000002  0.000000
  2O   1dyz       0.000000  0.000000 -0.000000  0.000000 -0.132343 -0.000000
  2O   1dx2y2     0.000000 -0.000000  0.014510  0.034049 -0.000000  0.066174
  2O   1dxy      -0.048654  0.052871 -0.000000  0.000000 -0.000000 -0.000002
                     24        25        26        27        28        29
                   1.35893   1.35893   1.59298   2.08830   2.57639   2.57640
                   0.00000   0.00000   0.00000   0.00000   0.00000   0.00000
                  --------  --------  --------  --------  --------  --------
  0C   1s        -0.000000 -0.000000  0.000000 -0.001909  0.000000  0.000000
  0C   2s         0.000000  0.000000  0.000002  7.362764 -0.000000  0.000000
  0C   3s         0.000000  0.000000 -0.000004  1.693639 -0.000000  0.000000
  0C   1pz       -0.268084  0.211899 -0.000000 -0.000000  0.000000 -0.000000
  0C   1px        0.000000  0.000000 -0.071747  0.000002 -0.000000 -0.000000
  0C   1py        0.211899  0.268084 -0.000000 -0.000000 -0.000000 -0.000000
  0C   2pz        1.160973 -0.917657  0.000000  0.000000  0.000000 -0.000000
  0C   2px        0.000000 -0.000000 -3.245467  0.000004 -0.000000 -0.000000
  0C   2py       -0.917657 -1.160973  0.000000  0.000000 -0.000000 -0.000000
  0C   1dz2       0.000006  0.000006 -0.000000  0.268887 -0.000001 -0.000000
  0C   1dxz      -0.000001  0.000000 -0.000000  0.000000 -0.000000  0.000000
  0C   1dyz       0.000007 -0.000007 -0.000000 -0.000000  0.000000  0.000001
  0C   1dx2y2     0.000003  0.000003  0.000001 -0.465725 -0.000001  0.000000
  0C   1dxy       0.000000  0.000001 -0.000000  0.000000  0.000000  0.000000
  1O   1s         0.000000  0.000000 -0.213930 -0.169531 -0.000000 -0.000000
  1O   2s         0.000000  0.000000 -1.564594 -0.789032 -0.000000 -0.000000
  1O   3s        -0.000000 -0.000001  5.279274 -3.534663  0.000000  0.000000
  1O   1pz        0.630251 -0.498163  0.000000  0.000000  0.000000 -0.000000
  1O   1px        0.000000  0.000000 -0.384094  0.827484 -0.000000  0.000000
  1O   1py       -0.498163 -0.630251  0.000000  0.000000 -0.000000 -0.000000
  1O   2pz       -0.909282  0.718715  0.000000 -0.000000  0.000000 -0.000000
  1O   2px        0.000000  0.000000 -0.090801  1.340506 -0.000000  0.000000
  1O   2py        0.718715  0.909282  0.000000 -0.000000 -0.000000 -0.000000
  1O   1dz2       0.000001  0.000001  0.010183  0.019967 -0.626590  0.000000
  1O   1dxz       0.106439 -0.084132 -0.000000  0.000000  0.000000 -0.000000
  1O   1dyz       0.000001 -0.000001 -0.000000 -0.000000  0.000000  0.723524
  1O   1dx2y2     0.000001  0.000001 -0.017637 -0.034583 -0.361762  0.000000
  1O   1dxy      -0.084132 -0.106439 -0.000000  0.000000 -0.000000 -0.000000
  2O   1s         0.000000  0.000000  0.213929 -0.169532  0.000000 -0.000000
  2O   2s         0.000000  0.000000  1.564584 -0.789038  0.000000 -0.000000
  2O   3s        -0.000000 -0.000001 -5.279264 -3.534694 -0.000000 -0.000000
  2O   1pz        0.630250 -0.498162  0.000000  0.000000 -0.000000  0.000000
  2O   1px       -0.000000 -0.000000 -0.384097 -0.827484 -0.000000 -0.000000
  2O   1py       -0.498162 -0.630250 -0.000000  0.000000  0.000000  0.000000
  2O   2pz       -0.909283  0.718715 -0.000000 -0.000000 -0.000000  0.000000
  2O   2px       -0.000000 -0.000000 -0.090792 -1.340525 -0.000000 -0.000000
  2O   2py        0.718715  0.909283 -0.000000 -0.000000  0.000000  0.000000
  2O   1dz2       0.000001  0.000001 -0.010182  0.019968  0.626589 -0.000000
  2O   1dxz      -0.106440  0.084132 -0.000000 -0.000000  0.000000 -0.000000
  2O   1dyz       0.000001 -0.000001  0.000000  0.000000 -0.000000 -0.723523
  2O   1dx2y2     0.000001  0.000001  0.017637 -0.034586  0.361762 -0.000000
  2O   1dxy       0.084132  0.106440 -0.000000 -0.000000 -0.000000 -0.000000
                     30        31        32        33        34        35
                   3.01714   3.01714   3.29024   3.31798   3.60196   3.60196
                   0.00000   0.00000   0.00000   0.00000   0.00000   0.00000
                  --------  --------  --------  --------  --------  --------
  0C   1s         0.000000 -0.000000 -0.440913 -0.000062 -0.000000 -0.000000
  0C   2s         0.000000 -0.000000-10.326207 -0.001381  0.000000  0.000000
  0C   3s         0.000000 -0.000000 -1.251435 -0.000163 -0.000000 -0.000000
  0C   1pz        0.000000 -0.000000  0.000000  0.000000 -0.000000  0.000000
  0C   1px       -0.000000 -0.000000  0.000023 -0.133381  0.000000 -0.000000
  0C   1py       -0.000000 -0.000000  0.000000  0.000000  0.000000  0.000000
  0C   2pz        0.000001 -0.000000 -0.000000  0.000000 -0.000000  0.000000
  0C   2px        0.000000  0.000000 -0.000008  0.036923  0.000000 -0.000000
  0C   2py       -0.000000 -0.000001 -0.000000 -0.000000  0.000000  0.000000
  0C   1dz2      -0.000000  0.000000  0.867463  0.000119 -0.942615 -0.000000
  0C   1dxz       0.288462 -0.167413  0.000000  0.000000 -0.000000  0.000000
  0C   1dyz      -0.000000  0.000000 -0.000000  0.000000 -0.000000  1.088434
  0C   1dx2y2     0.000000 -0.000000 -1.502490 -0.000205 -0.544219 -0.000000
  0C   1dxy      -0.167413 -0.288462  0.000000  0.000000  0.000000  0.000000
  1O   1s         0.000000  0.000000 -0.015918  0.000995 -0.000000 -0.000000
  1O   2s         0.000000  0.000000  3.084797  0.413110 -0.000000 -0.000000
  1O   3s        -0.000000 -0.000000  3.288614 -2.497570 -0.000000  0.000000
  1O   1pz       -0.249620  0.144871  0.000000 -0.000000 -0.000000  0.000000
  1O   1px       -0.000000 -0.000000 -0.698881  0.088537  0.000000  0.000000
  1O   1py        0.144871  0.249620  0.000000 -0.000000  0.000000  0.000000
  1O   2pz        0.216649 -0.125736  0.000000 -0.000000  0.000000 -0.000000
  1O   2px        0.000000  0.000000 -1.520638  1.583945  0.000000  0.000000
  1O   2py       -0.125736 -0.216649  0.000000 -0.000000 -0.000000 -0.000000
  1O   1dz2      -0.000000 -0.000000 -0.334185  0.507007  0.822332  0.000000
  1O   1dxz      -0.627316  0.364073 -0.000000  0.000000 -0.000000  0.000000
  1O   1dyz      -0.000000  0.000000  0.000000 -0.000000  0.000000 -0.949548
  1O   1dx2y2    -0.000000 -0.000000  0.578826 -0.878162  0.474773  0.000000
  1O   1dxy       0.364073  0.627316 -0.000000  0.000000  0.000000  0.000000
  2O   1s        -0.000000 -0.000000 -0.015917 -0.000999 -0.000000 -0.000000
  2O   2s        -0.000000 -0.000000  3.084931 -0.412274 -0.000000 -0.000000
  2O   3s         0.000000  0.000000  3.287952  2.498439 -0.000000 -0.000000
  2O   1pz        0.249621 -0.144872  0.000000  0.000000 -0.000000  0.000000
  2O   1px       -0.000000 -0.000000  0.698855  0.088725 -0.000000 -0.000000
  2O   1py       -0.144872 -0.249621  0.000000  0.000000  0.000000  0.000000
  2O   2pz       -0.216651  0.125737  0.000000  0.000000  0.000000 -0.000000
  2O   2px        0.000000  0.000000  1.520213  1.584349 -0.000000 -0.000000
  2O   2py        0.125737  0.216651  0.000000  0.000000 -0.000000 -0.000000
  2O   1dz2       0.000000  0.000000 -0.334048 -0.507098  0.822335  0.000000
  2O   1dxz      -0.627316  0.364073  0.000000  0.000000  0.000000 -0.000000
  2O   1dyz       0.000000 -0.000000  0.000000  0.000000  0.000000 -0.949551
  2O   1dx2y2     0.000000  0.000000  0.578588  0.878319  0.474775  0.000000
  2O   1dxy       0.364073  0.627316  0.000000  0.000000 -0.000000 -0.000000
                     36        37        38        39        40        41
                   4.14517   4.14517   4.55796   4.55796   6.38010   7.43235
                   0.00000   0.00000   0.00000   0.00000   0.00000   0.00000
                  --------  --------  --------  --------  --------  --------
  0C   1s         0.000000 -0.000000 -0.000000  0.000000 -0.658880 -0.000003
  0C   2s        -0.000000  0.000000  0.000001 -0.000000 23.081482  0.000333
  0C   3s        -0.000000 -0.000000 -0.000000  0.000000  0.594135  0.000017
  0C   1pz       -0.000006  0.000004 -1.239064 -2.359777 -0.000000  0.000000
  0C   1px       -0.000000 -0.000000  0.000000 -0.000000  0.000013 -5.938286
  0C   1py        0.000004  0.000006  2.359777 -1.239064 -0.000000  0.000000
  0C   2pz       -0.000001  0.000001 -0.378411 -0.720678  0.000000  0.000000
  0C   2px       -0.000000 -0.000000  0.000000 -0.000000 -0.000004 -0.045150
  0C   2py        0.000001  0.000001  0.720678 -0.378411  0.000000  0.000000
  0C   1dz2      -0.000000  0.000000 -0.000000  0.000000 -3.352046 -0.000037
  0C   1dxz       2.105689 -1.690108  0.000001  0.000002 -0.000000  0.000000
  0C   1dyz      -0.000000  0.000000  0.000000  0.000000 -0.000000 -0.000000
  0C   1dx2y2    -0.000000 -0.000000  0.000000 -0.000000  5.805915  0.000064
  0C   1dxy      -1.690108 -2.105689 -0.000002  0.000001 -0.000000  0.000000
  1O   1s         0.000000  0.000000  0.000000 -0.000000  0.155622  0.170237
  1O   2s        -0.000000 -0.000000 -0.000000  0.000000-10.412688  4.061434
  1O   3s         0.000000  0.000000  0.000000 -0.000000 -4.238128  2.401032
  1O   1pz       -1.203760  0.966185  0.272374  0.518731 -0.000000  0.000000
  1O   1px        0.000000  0.000000 -0.000000  0.000000  1.639309 -1.850314
  1O   1py        0.966185  1.203760 -0.518731  0.272374 -0.000000  0.000000
  1O   2pz       -0.501512  0.402533  0.515888  0.982500 -0.000000  0.000000
  1O   2px       -0.000000 -0.000000  0.000000 -0.000000  2.049346 -1.297798
  1O   2py        0.402533  0.501512 -0.982500  0.515888 -0.000000  0.000000
  1O   1dz2      -0.000000 -0.000000 -0.000000  0.000000 -0.341614 -0.269867
  1O   1dxz       0.694826 -0.557695 -0.548320 -1.044267 -0.000000 -0.000000
  1O   1dyz      -0.000000  0.000000 -0.000000 -0.000000  0.000000  0.000000
  1O   1dx2y2    -0.000000 -0.000000  0.000000 -0.000000  0.591693  0.467423
  1O   1dxy      -0.557695 -0.694826  1.044267 -0.548320 -0.000000 -0.000000
  2O   1s        -0.000000 -0.000000  0.000000 -0.000000  0.155627 -0.170231
  2O   2s         0.000000  0.000000 -0.000000  0.000000-10.412682 -4.061705
  2O   3s        -0.000000 -0.000000  0.000000 -0.000000 -4.238155 -2.401180
  2O   1pz        1.203766 -0.966189  0.272378  0.518739 -0.000000 -0.000000
  2O   1px        0.000000  0.000000  0.000000 -0.000000 -1.639261 -1.850355
  2O   1py       -0.966189 -1.203766 -0.518739  0.272378 -0.000000 -0.000000
  2O   2pz        0.501515 -0.402535  0.515891  0.982506 -0.000000 -0.000000
  2O   2px       -0.000000 -0.000000 -0.000000  0.000000 -2.049340 -1.297860
  2O   2py       -0.402535 -0.501515 -0.982506  0.515891 -0.000000 -0.000000
  2O   1dz2       0.000000  0.000000 -0.000000  0.000000 -0.341618  0.269855
  2O   1dxz       0.694820 -0.557690  0.548323  1.044273  0.000000 -0.000000
  2O   1dyz       0.000000 -0.000000 -0.000000 -0.000000  0.000000  0.000000
  2O   1dx2y2     0.000000  0.000000  0.000000 -0.000000  0.591700 -0.467403
  2O   1dxy      -0.557690 -0.694820 -1.044273  0.548323  0.000000 -0.000000

MULLIKEN ATOMIC CHARGES
-----------------------
   0 C :    0.128643
   1 O :   -0.064329
   2 O :   -0.064314
Sum of atomic charges:   -0.0000000

LOEWDIN ATOMIC CHARGES
----------------------
   0 C :   -0.837190
   1 O :    0.418593
   2 O :    0.418597

  Mayer bond orders larger than 0.100000
B(  0-C ,  1-O ) :   1.7470 B(  0-C ,  2-O ) :   1.7470 B(  1-O ,  2-O ) :   1.4594

FINAL SINGLE POINT ENERGY      -182.222672409965

DIPOLE MOMENT
-------------

Method             : SCF
Type of density    : Electron Density
Multiplicity       :   1
Irrep              :   0
Energy             :  -182.2226724099653268 Eh
Relativity type    :
Basis              : AO
                                X                 Y                 Z
Electronic contribution:     -0.000008559       0.000000058       0.000000008
Nuclear contribution   :      0.000000011      -0.000000000      -0.000000000
                        -----------------------------------------
Total Dipole Moment    :     -0.000008548       0.000000057       0.000000008
                        -----------------------------------------
Magnitude (a.u.)       :      0.000008548
Magnitude (Debye)      :      0.000021728

VIBRATIONAL FREQUENCIES
-----------------------

Scaling factor for frequencies =  1.000000000  (already applied!)

     0:       0.00 cm**-1
     1:       0.00 cm**-1
     2:       0.00 cm**-1
     3:       0.00 cm**-1
     4:       0.00 cm**-1
     5:   -6886.02 cm**-1  ***imaginary mode***
     6:   -6886.02 cm**-1  ***imaginary mode***
     7:    7710.69 cm**-1
     8:   14640.89 cm**-1

IR SPECTRUM
-----------

 Mode   freq       eps      Int      T**2         TX        TY        TZ
       cm**-1   L/(mol*cm) km/mol    a.u.
----------------------------------------------------------------------------
  7:   7710.69   0.000000    0.00  0.000000  (-0.000001  0.000000  0.000000)
  8:  14640.89   0.250419  1265.52  0.005338  ( 0.073059  0.000000  0.000000)

--------------------------
THERMOCHEMISTRY AT 298.15K
--------------------------

Temperature         ...   298.15 K
Pressure            ...     1.00 atm
Total Mass          ...    44.01 AMU
Quasi RRHO          ...     True
Cut-Off Frequency   ...     1.00 cm^-1
The molecule is recognized as being linear

Throughout the following assumptions are being made:
  (1) The electronic state is orbitally nondegenerate
  (2) There are no thermally accessible electronically excited states
  (3) Hindered rotations indicated by low frequency modes are not
      treated as such but are treated as vibrations and this may
      cause some error
  (4) All equations used are the standard statistical mechanics
      equations for an ideal gas
  (5) All vibrations are strictly harmonic

freq.    7710.69  E(vib)   ...       0.00
freq.   14640.89  E(vib)   ...       0.00

------------
INNER ENERGY
------------

The inner energy is: U= E(el) + E(ZPE) + E(vib) + E(rot) + E(trans)
    E(el)   - is the total energy from the electronic structure calculation
              = E(kin-el) + E(nuc-el) + E(el-el) + E(nuc-nuc)
    E(ZPE)  - the the zero temperature vibrational energy from the frequency calculation
    E(vib)  - the the finite temperature correction to E(ZPE) due to population
              of excited vibrational states
    E(rot)  - is the rotational thermal energy
    E(trans)- is the translational thermal energy

Summary of contributions to the inner energy U:
Electronic energy                ...   -182.22267241 Eh
Zero point energy                ...      0.05092064 Eh      31.95 kcal/mol
Thermal vibrational correction   ...      0.00000000 Eh       0.00 kcal/mol
Thermal rotational correction    ...      0.00094418 Eh       0.59 kcal/mol
Thermal translational correction ...      0.00141627 Eh       0.89 kcal/mol
-----------------------------------------------------------------------
Total thermal energy                   -182.16939131 Eh

Summary of corrections to the electronic energy:
(perhaps to be used in another calculation)
Total thermal correction                  0.00236045 Eh       1.48 kcal/mol
Non-thermal (ZPE) correction              0.05092064 Eh      31.95 kcal/mol
-----------------------------------------------------------------------
Total correction                          0.05328110 Eh      33.43 kcal/mol

--------
ENTHALPY
--------

The enthalpy is H = U + kB*T
                kB is Boltzmann's constant
Total thermal energy              ...   -182.16939131 Eh
Thermal Enthalpy correction       ...      0.00094421 Eh       0.59 kcal/mol
-----------------------------------------------------------------------
Total Enthalpy                    ...   -182.16844711 Eh

Note: Rotational entropy computed according to Herzberg
Infrared and Raman Spectra, Chapter V,1, Van Nostrand Reinhold, 1945
Point Group:  D(inf)h, Symmetry Number:   1
Rotational constants in cm-1:     0.000000     1.454611     1.454611

Vibrational entropy computed according to the QRRHO of S. Grimme
Chem.Eur.J. 2012 18 9955 using a reference frequency of 100.0 cm-1

-------
ENTROPY
-------

The entropy contributions are T*S = T*(S(el)+S(vib)+S(rot)+S(trans))
     S(el)   - electronic entropy
     S(vib)  - vibrational entropy
     S(rot)  - rotational entropy
     S(trans)- translational entropy
The entropies will be listed as multiplied by the temperature to get
units of energy

Electronic entropy                ...      0.00000000 Eh      0.00 kcal/mol
Vibrational entropy               ...     -0.00000000 Eh     -0.00 kcal/mol
Rotational entropy                ...      0.00562644 Eh      3.53 kcal/mol
Translational entropy             ...      0.01770880 Eh     11.11 kcal/mol
-----------------------------------------------------------------------
Final entropy term                ...      0.02333524 Eh     14.64 kcal/mol

-------------------
GIBBS FREE ENERGY
-------------------

The Gibbs free energy is G = H - T*S

Total enthalpy                    ...   -182.16844711 Eh
Total entropy correction          ...     -0.02333524 Eh    -14.64 kcal/mol
-----------------------------------------------------------------------
Final Gibbs free energy         ...   -182.19178235 Eh

For completeness - the Gibbs free energy minus the electronic energy
G-E(el)                           ...      0.03089006 Eh     19.38 kcal/mol

                             ****ORCA TERMINATED NORMALLY****
TOTAL RUN TIME: 0 days 0 hours 0 minutes 14 seconds 837 msec
