                         Program Version 6.0.1  -  RELEASE   -
|  1> ! B3LYP def2-SVP TightSCF Freq
|  2> * xyz 0 1
|  3>    C         -0.0000008287          0.0000000183          0.0000000024
|  4>    O          0.6018162718         -0.0000000107         -0.0000000022
|  5>    O         -0.6018152429         -0.0000000088         -0.0000000013
|  6> *
|  7> %elprop
|  8>  Polar 1
|  9> end
| 10>
| 11>                          ****END OF INPUT****

CARTESIAN COORDINATES (ANGSTROEM)
---------------------------------
  C     -0.000001    0.000000    0.000000
  O      0.601816   -0.000000   -0.000000
  O     -0.601815   -0.000000   -0.000000

 Total Charge           Charge          ....    0
 Multiplicity           Mult            ....    1
 Number of Electrons    NEL             ....   22
 Basis Dimension        Dim             ....   42

ORBITAL ENERGIES
----------------

  NO   OCC          E(Eh)            E(eV)
   0   2.0000     -19.223222      -523.0905
   1   2.0000     -19.222739      -523.0773
   2   2.0000     -10.812743      -294.2297
   3   2.0000      -1.269481       -34.5443
   4   2.0000      -1.185174       -32.2502
   5   2.0000      -0.999840       -27.2070
   6   2.0000      -0.999840       -27.2070
   7   2.0000      -0.521165       -14.1816
   8   2.0000      -0.372650       -10.1403
   9   2.0000      -0.372650       -10.1403
  10   2.0000      -0.341094        -9.2816
  11   0.0000       0.153435         4.1752
  12   0.0000       0.221264         6.0209
  13   0.0000       0.221264         6.0209
  14   0.0000       0.314128         8.5478
  15   0.0000       0.736496        20.0411

MULLIKEN ATOMIC CHARGES
-----------------------
   0 C :    0.128646
   1 O :   -0.064330
   2 O :   -0.064316
Sum of atomic charges:   -0.0000000

LOEWDIN ATOMIC CHARGES
----------------------
   0 C :   -0.837188
   1 O :    0.418592
   2 O :    0.418596

  Mayer bond orders larger than 0.100000
B(  0-C ,  1-O ) :   1.7470 B(  0-C ,  2-O ) :   1.7470 B(  1-O ,  2-O ) :   1.4594

FINAL SINGLE POINT ENERGY      -182.222672409946

DIPOLE MOMENT
-------------

Method             : SCF
Type of density    : Electron Density
Multiplicity       :   1
Irrep              :   0
Energy             :  -182.2226724099458579 Eh
Relativity type    :
Basis              : AO
                                X                 Y                 Z
Electronic contribution:     -0.000008557       0.000000057       0.000000008
Nuclear contribution   :      0.000000011      -0.000000000      -0.000000000
                        -----------------------------------------
Total Dipole Moment    :     -0.000008547       0.000000057       0.000000008
                        -----------------------------------------
Magnitude (a.u.)       :      0.000008547
Magnitude (Debye)      :      0.000021724

VIBRATIONAL FREQUENCIES
-----------------------

Scaling factor for frequencies =  1.000000000  (already applied!)

     0:       0.00 cm**-1
     1:       0.00 cm**-1
     2:       0.00 cm**-1
     3:       0.00 cm**-1
     4:       0.00 cm**-1
     5:   -6886.03 cm**-1  ***imaginary mode***
     6:   -6886.03 cm**-1  ***imaginary mode***
     7:    7710.69 cm**-1
     8:   14640.88 cm**-1

IR SPECTRUM
-----------

 Mode   freq       eps      Int      T**2         TX        TY        TZ
       cm**-1   L/(mol*cm) km/mol    a.u.
----------------------------------------------------------------------------
  7:   7710.69   0.000000    0.00  0.000000  (-0.000001  0.000000  0.000000)
  8:  14640.88   0.250419  1265.51  0.005338  ( 0.073059  0.000000  0.000000)

--------------------------
THERMOCHEMISTRY AT 298.15K
--------------------------

Temperature         ...   298.15 K
Pressure            ...     1.00 atm
Total Mass          ...    44.01 AMU
Quasi RRHO          ...     True
Cut-Off Frequency   ...     1.00 cm^-1
The molecule is recognized as being linear

Throughout the following assumptions are being made:
  (1) The electronic state is orbitally nondegenerate
  (2) There are no thermally accessible electronically excited states
  (3) Hindered rotations indicated by low frequency modes are not
      treated as such but are treated as vibrations and this may
      cause some error
  (4) All equations used are the standard statistical mechanics
      equations for an ideal gas
  (5) All vibrations are strictly harmonic

freq.    7710.69  E(vib)   ...       0.00
freq.   14640.88  E(vib)   ...       0.00

------------
INNER ENERGY
------------

The inner energy is: U= E(el) + E(ZPE) + E(vib) + E(rot) + E(trans)
    E(el)   - is the total energy from the electronic structure calculation
              = E(kin-el) + E(nuc-el) + E(el-el) + E(nuc-nuc)
    E(ZPE)  - the the zero temperature vibrational energy from the frequency calculation
    E(vib)  - the the finite temperature correction to E(ZPE) due to population
              of excited vibrational states
    E(rot)  - is the rotational thermal energy
    E(trans)- is the translational thermal energy

Summary of contributions to the inner energy U:
Electronic energy                ...   -182.22267241 Eh
Zero point energy                ...      0.05092063 Eh      31.95 kcal/mol
Thermal vibrational correction   ...      0.00000000 Eh       0.00 kcal/mol
Thermal rotational correction    ...      0.00094418 Eh       0.59 kcal/mol
Thermal translational correction ...      0.00141627 Eh       0.89 kcal/mol
-----------------------------------------------------------------------
Total thermal energy                   -182.16939132 Eh

Summary of corrections to the electronic energy:
(perhaps to be used in another calculation)
Total thermal correction                  0.00236045 Eh       1.48 kcal/mol
Non-thermal (ZPE) correction              0.05092063 Eh      31.95 kcal/mol
-----------------------------------------------------------------------
Total correction                          0.05328109 Eh      33.43 kcal/mol

--------
ENTHALPY
--------

The enthalpy is H = U + kB*T
                kB is Boltzmann's constant
Total thermal energy              ...   -182.16939132 Eh
Thermal Enthalpy correction       ...      0.00094421 Eh       0.59 kcal/mol
-----------------------------------------------------------------------
Total Enthalpy                    ...   -182.16844712 Eh

Note: Rotational entropy computed according to Herzberg
Infrared and Raman Spectra, Chapter V,1, Van Nostrand Reinhold, 1945
Point Group:  D(inf)h, Symmetry Number:   1
Rotational constants in cm-1:     0.000000     1.454611     1.454611

Vibrational entropy computed according to the QRRHO of S. Grimme
Chem.Eur.J. 2012 18 9955 using a reference frequency of 100.0 cm-1

-------
ENTROPY
-------

The entropy contributions are T*S = T*(S(el)+S(vib)+S(rot)+S(trans))
     S(el)   - electronic entropy
     S(vib)  - vibrational entropy
     S(rot)  - rotational entropy
     S(trans)- translational entropy
The entropies will be listed as multiplied by the temperature to get
units of energy

Electronic entropy                ...      0.00000000 Eh      0.00 kcal/mol
Vibrational entropy               ...     -0.00000000 Eh     -0.00 kcal/mol
Rotational entropy                ...      0.00562644 Eh      3.53 kcal/mol
Translational entropy             ...      0.01770880 Eh     11.11 kcal/mol
-----------------------------------------------------------------------
Final entropy term                ...      0.02333524 Eh     14.64 kcal/mol

-------------------
GIBBS FREE ENERGY
-------------------

The Gibbs free energy is G = H - T*S

Total enthalpy                    ...   -182.16844712 Eh
Total entropy correction          ...     -0.02333524 Eh    -14.64 kcal/mol
-----------------------------------------------------------------------
Final Gibbs free energy         ...   -182.19178236 Eh

For completeness - the Gibbs free energy minus the electronic energy
G-E(el)                           ...      0.03089005 Eh     19.38 kcal/mol

                             ****ORCA TERMINATED NORMALLY****
TOTAL RUN TIME: 0 days 0 hours 0 minutes 14 seconds 828 msec
