                         Program Version 6.0.1  -  RELEASE   -
|  1> ! B3LYP def2-SVP TightSCF Freq
|  2> %output
|  3>   PrintLevel 5
|  4> end
|  5> * xyz 0 1
|  6>    C         -0.0148897368          0.0000000193          0.0000000017
|  7>    O          0.6204357055         -0.0000000100         -0.0000000009
|  8>    O         -0.6107498391         -0.0000000093         -0.0000000007
|  9> *
| 10> %elprop
| 11>  Polar 1
| 12> end
| 13>
| 14>                          ****END OF INPUT****

CARTESIAN COORDINATES (ANGSTROEM)
---------------------------------
  C     -0.014890    0.000000    0.000000
  O      0.620436   -0.000000   -0.000000
  O     -0.610750   -0.000000   -0.000000

 Total Charge           Charge          ....    0
 Multiplicity           Mult            ....    1
 Number of Electrons    NEL             ....   22
 Basis Dimension        Dim             ....   42

ORBITAL ENERGIES
----------------

  NO   OCC          E(Eh)            E(eV)
   0   2.0000     -19.252230      -523.8798
   1   2.0000     -19.162192      -521.4298
   2   2.0000     -10.748589      -292.4840
   3   2.0000      -1.281600       -34.8741
   4   2.0000      -1.187407       -32.3110
   5   2.0000      -0.974423       -26.5154
   6   2.0000      -0.974423       -26.5154
   7   2.0000      -0.518669       -14.1137
   8   2.0000      -0.371617       -10.1122
   9   2.0000      -0.371617       -10.1122
  10   2.0000      -0.355018        -9.6605
  11   0.0000       0.152460         4.1487
  12   0.0000       0.225824         6.1450
  13   0.0000       0.225824         6.1450
  14   0.0000       0.315847         8.5946
  15   0.0000       0.729873        19.8609

------------------
MOLECULAR ORBITALS (RHF, ROHF)
------------------
                      0         1         2         3         4         5
                 -19.25223 -19.16219 -10.74859  -1.28160  -1.18741  -0.97442
                   2.00000   2.00000   2.00000   2.00000   2.00000   2.00000
                  --------  --------  --------  --------  --------  --------
  0C   1s        -0.003165  0.001695  0.971503  0.068865  0.369618 -0.000000
  0C   2s         0.027435 -0.027803 -0.095955  0.145775 -0.008922 -0.000000
  0C   3s        -0.001092  0.003670 -0.008287 -0.012373 -0.053777 -0.000000
  0C   1pz       -0.000000  0.000000 -0.000000  0.000000  0.000000 -0.036277
  0C   1px       -0.001861 -0.007070 -0.009675 -0.799064  0.179966 -0.000000
  0C   1py       -0.000000  0.000000 -0.000000  0.000000  0.000000  0.516667
  0C   2pz        0.000000 -0.000000 -0.000000  0.000000  0.000000 -0.008881
  0C   2px        0.012691  0.013176 -0.000032 -0.066868  0.015383  0.000000
  0C   2py        0.000000 -0.000000 -0.000000  0.000000  0.000000  0.126488
  0C   1dz2       0.003845 -0.001927  0.006839 -0.029439 -0.043326  0.000000
  0C   1dxz      -0.000000 -0.000000  0.000000  0.000000 -0.000000 -0.000621
  0C   1dyz       0.000000 -0.000000  0.000000  0.000000 -0.000000 -0.000000
  0C   1dx2y2    -0.006659  0.003337 -0.011846  0.050990  0.075043 -0.000000
  0C   1dxy      -0.000000 -0.000000  0.000000  0.000000 -0.000000  0.008840
  1O   1s         0.001663 -0.986141  0.024865 -0.271359 -0.141515  0.000000
  1O   2s         0.008025  0.052521  0.054749 -0.337447 -0.433718  0.000000
  1O   3s        -0.029086 -0.023361  0.029250  0.172717 -0.198225  0.000000
  1O   1pz       -0.000000  0.000000  0.000000 -0.000000  0.000000 -0.022841
  1O   1px       -0.000553 -0.013111 -0.033794  0.303673  0.103510  0.000000
  1O   1py        0.000000  0.000000  0.000000 -0.000000  0.000000  0.325299
  1O   2pz       -0.000000 -0.000000  0.000000 -0.000000 -0.000000  0.002473
  1O   2px        0.007677 -0.003649 -0.014627 -0.103580  0.069236 -0.000000
  1O   2py       -0.000000  0.000000  0.000000 -0.000000 -0.000000 -0.035221
  1O   1dz2      -0.000879 -0.002544 -0.003425  0.028096 -0.011995  0.000000
  1O   1dxz      -0.000000 -0.000000 -0.000000  0.000000 -0.000000  0.002320
  1O   1dyz      -0.000000 -0.000000 -0.000000 -0.000000  0.000000  0.000000
  1O   1dx2y2     0.001523  0.004407  0.005933 -0.048664  0.020776 -0.000000
  1O   1dxy      -0.000000 -0.000000 -0.000000  0.000000 -0.000000 -0.033035
  2O   1s         0.985731  0.001617  0.034683  0.193131 -0.256523  0.000000
  2O   2s        -0.046271 -0.006719  0.049809 -0.027752 -0.529558  0.000000
  2O   3s         0.019670  0.025893  0.022555 -0.277153 -0.112063  0.000000
  2O   1pz       -0.000000 -0.000000  0.000000  0.000000  0.000000 -0.028299
  2O   1px       -0.013956 -0.000921  0.035241  0.208913 -0.185636 -0.000000
  2O   1py       -0.000000 -0.000000  0.000000  0.000000  0.000000  0.403039
  2O   2pz        0.000000  0.000000  0.000000  0.000000 -0.000000  0.001683
  2O   2px       -0.004360  0.005929  0.009607 -0.143002 -0.005745  0.000000
  2O   2py       -0.000000  0.000000  0.000000 -0.000000 -0.000000 -0.023965
  2O   1dz2       0.002803  0.001025 -0.004026 -0.031270 -0.005160  0.000000
  2O   1dxz      -0.000000 -0.000000  0.000000  0.000000  0.000000 -0.003414
  2O   1dyz      -0.000000  0.000000 -0.000000  0.000000  0.000000  0.000000
  2O   1dx2y2    -0.004854 -0.001775  0.006973  0.054161  0.008937 -0.000000
  2O   1dxy      -0.000000 -0.000000  0.000000  0.000000  0.000000  0.048617
                      6         7         8         9        10        11
                  -0.97442  -0.51867  -0.37162  -0.37162  -0.35502   0.15246
                   2.00000   2.00000   2.00000   2.00000   2.00000   0.00000
                  --------  --------  --------  --------  --------  --------
  0C   1s         0.000000  0.018517  0.000000  0.000000  0.286825  0.059580
  0C   2s         0.000000 -0.067615  0.000000  0.000000  0.712147  0.711804
  0C   3s         0.000000 -0.002952 -0.000000  0.000000  0.244927  3.226614
  0C   1pz       -0.516667  0.000000  0.018039 -0.008715  0.000000 -0.000000
  0C   1px        0.000000  0.397053  0.000000  0.000000  0.030126  0.008345
  0C   1py       -0.036277  0.000000 -0.008715 -0.018039  0.000000 -0.000000
  0C   2pz       -0.126488 -0.000000  0.013288 -0.006419 -0.000000  0.000000
  0C   2px       -0.000000 -0.117106 -0.000000 -0.000000 -0.004377 -0.056504
  0C   2py       -0.008881  0.000000 -0.006419 -0.013288 -0.000000  0.000000
  0C   1dz2      -0.000000  0.012258 -0.000000 -0.000000 -0.081254  0.043460
  0C   1dxz      -0.008840 -0.000000  0.013035 -0.006297  0.000000 -0.000000
  0C   1dyz       0.000000  0.000000 -0.000000  0.000000  0.000000 -0.000000
  0C   1dx2y2     0.000000 -0.021231  0.000000  0.000000  0.140736 -0.075274
  0C   1dxy      -0.000621 -0.000000 -0.006297 -0.013035 -0.000000 -0.000000
  1O   1s        -0.000000 -0.091929  0.000000  0.000000  0.060231 -0.084871
  1O   2s        -0.000000 -0.270631  0.000000  0.000000 -0.138121 -0.035768
  1O   3s        -0.000000 -0.374465 -0.000000  0.000000 -0.054160 -1.806393
  1O   1pz       -0.325299  0.000000  0.517405 -0.249961  0.000000 -0.000000
  1O   1px        0.000000 -0.431080 -0.000000 -0.000000  0.495012 -0.035187
  1O   1py       -0.022841  0.000000 -0.249961 -0.517405 -0.000000 -0.000000
  1O   2pz        0.035221 -0.000000  0.317162 -0.153222  0.000000 -0.000000
  1O   2px        0.000000 -0.074559 -0.000000 -0.000000  0.394445  0.250455
  1O   2py        0.002473  0.000000 -0.153222 -0.317162 -0.000000 -0.000000
  1O   1dz2      -0.000000 -0.025375  0.000000 -0.000000 -0.002480  0.011252
  1O   1dxz       0.033035 -0.000000 -0.051823  0.025036 -0.000000  0.000000
  1O   1dyz      -0.000000 -0.000000  0.000000 -0.000000 -0.000000  0.000000
  1O   1dx2y2     0.000000  0.043950  0.000000  0.000000  0.004295 -0.019490
  1O   1dxy       0.002320 -0.000000  0.025036  0.051823  0.000000  0.000000
  2O   1s        -0.000000  0.070861 -0.000000 -0.000000  0.051067 -0.089823
  2O   2s        -0.000000  0.330064 -0.000000 -0.000000 -0.143219 -0.037803
  2O   3s        -0.000000  0.356835  0.000000 -0.000000 -0.079664 -2.002991
  2O   1pz       -0.403039 -0.000000 -0.486437  0.235000 -0.000000 -0.000000
  2O   1px        0.000000 -0.426764 -0.000000 -0.000000 -0.516414  0.037121
  2O   1py       -0.028299 -0.000000  0.235000  0.486437 -0.000000 -0.000000
  2O   2pz        0.023965  0.000000 -0.297405  0.143678 -0.000000 -0.000000
  2O   2px       -0.000000 -0.068088 -0.000000 -0.000000 -0.405846 -0.263253
  2O   2py        0.001683 -0.000000  0.143678  0.297405 -0.000000 -0.000000
  2O   1dz2      -0.000000  0.023876 -0.000000  0.000000 -0.004958  0.009992
  2O   1dxz      -0.048617 -0.000000 -0.048784  0.023568 -0.000000 -0.000000
  2O   1dyz      -0.000000  0.000000 -0.000000  0.000000 -0.000000  0.000000
  2O   1dx2y2     0.000000 -0.041355 -0.000000 -0.000000  0.008587 -0.017307
  2O   1dxy      -0.003414 -0.000000  0.023568  0.048784 -0.000000 -0.000000
                     12        13        14        15        16        17
                   0.22582   0.22582   0.31585   0.72987   0.79345   0.79345
                   0.00000   0.00000   0.00000   0.00000   0.00000   0.00000
                  --------  --------  --------  --------  --------  --------
  0C   1s         0.000000 -0.000000 -0.009827  0.252542 -0.000000 -0.000000
  0C   2s         0.000000 -0.000000 -0.048811 -4.846711  0.000002  0.000001
  0C   3s        -0.000000  0.000000 -0.113428 -1.679385  0.000000  0.000000
  0C   1pz        0.209626  0.099733 -0.000000  0.000000 -0.401054  0.834739
  0C   1px       -0.000000  0.000000 -0.099651  0.048903 -0.000000 -0.000000
  0C   1py       -0.099733  0.209626 -0.000000  0.000000  0.834739  0.401054
  0C   2pz       -1.530191 -0.728017 -0.000000  0.000000 -0.567940  1.182089
  0C   2px       -0.000000  0.000000 -3.241585 -0.068801  0.000000  0.000000
  0C   2py        0.728017 -1.530191 -0.000000  0.000001  1.182089  0.567940
  0C   1dz2      -0.000000  0.000000 -0.001281  0.050418 -0.000000 -0.000000
  0C   1dxz       0.004329  0.002060 -0.000000 -0.000000  0.104594 -0.217698
  0C   1dyz      -0.000000 -0.000000 -0.000000  0.000000 -0.000000  0.000000
  0C   1dx2y2     0.000000 -0.000000  0.002218 -0.087326  0.000000  0.000000
  0C   1dxy      -0.002060  0.004329 -0.000000 -0.000000 -0.217698 -0.104594
  1O   1s         0.000000 -0.000000  0.066176 -0.013570  0.000000  0.000000
  1O   2s        -0.000000  0.000000 -0.000254  0.213837 -0.000000 -0.000000
  1O   3s         0.000000 -0.000000  2.965032  2.455945 -0.000000 -0.000000
  1O   1pz        0.110127  0.052395  0.000000 -0.000000  0.153633 -0.319765
  1O   1px        0.000000 -0.000000  0.143808  0.309323 -0.000000 -0.000000
  1O   1py       -0.052395  0.110127  0.000000 -0.000000 -0.319765 -0.153633
  1O   2pz        0.406550  0.193424  0.000000 -0.000000  0.196615 -0.409228
  1O   2px        0.000000 -0.000000 -0.027459 -1.623186  0.000000  0.000000
  1O   2py       -0.193424  0.406550  0.000000 -0.000000 -0.409228 -0.196615
  1O   1dz2      -0.000000  0.000000 -0.001966 -0.023935  0.000000  0.000000
  1O   1dxz      -0.025597 -0.012178 -0.000000 -0.000000  0.038712 -0.080573
  1O   1dyz       0.000000  0.000000  0.000000  0.000000 -0.000000  0.000000
  1O   1dx2y2     0.000000 -0.000000  0.003405  0.041456 -0.000000 -0.000000
  1O   1dxy       0.012178 -0.025597 -0.000000 -0.000000 -0.080573 -0.038712
  2O   1s         0.000000 -0.000000 -0.058641 -0.022572 -0.000000 -0.000000
  2O   2s        -0.000000  0.000000 -0.001403  0.277470 -0.000000 -0.000000
  2O   3s         0.000000 -0.000000 -2.781248  2.829431 -0.000001 -0.000001
  2O   1pz        0.108466  0.051605 -0.000000 -0.000000 -0.025399  0.052864
  2O   1px       -0.000000  0.000000  0.163320 -0.296452  0.000000  0.000000
  2O   1py       -0.051605  0.108466 -0.000000 -0.000000  0.052864  0.025399
  2O   2pz        0.391239  0.186139 -0.000000 -0.000000  0.817077 -1.700634
  2O   2px       -0.000000  0.000000  0.068656  1.831018 -0.000001 -0.000001
  2O   2py       -0.186139  0.391239 -0.000000 -0.000000 -1.700634 -0.817077
  2O   1dz2      -0.000000  0.000000  0.001239 -0.028832  0.000000  0.000000
  2O   1dxz       0.029312  0.013946 -0.000000  0.000000 -0.012475  0.025964
  2O   1dyz       0.000000  0.000000 -0.000000  0.000000 -0.000000  0.000000
  2O   1dx2y2     0.000000 -0.000000 -0.002146  0.049939 -0.000000 -0.000000
  2O   1dxy      -0.013946  0.029312 -0.000000  0.000000  0.025964  0.012475
                     18        19        20        21        22        23
                   0.81601   0.81601   0.84088   1.22356   1.34076   1.34076
                   0.00000   0.00000   0.00000   0.00000   0.00000   0.00000
                  --------  --------  --------  --------  --------  --------
  0C   1s         0.000000  0.000000 -0.000527  0.046654  0.000000  0.000000
  0C   2s        -0.000001 -0.000000  0.030696 -0.249819 -0.000000 -0.000000
  0C   3s        -0.000000 -0.000000  0.003762 -3.223823 -0.000000 -0.000000
  0C   1pz        0.202699 -0.648752 -0.000000  0.000000  0.215638 -0.209311
  0C   1px       -0.000000 -0.000000  0.565417 -0.039088 -0.000000 -0.000000
  0C   1py       -0.648752 -0.202699 -0.000000  0.000000 -0.209311 -0.215638
  0C   2pz        0.266583 -0.853217 -0.000000 -0.000000 -1.109487  1.076932
  0C   2px        0.000000  0.000000 -0.944922  0.051541  0.000000  0.000000
  0C   2py       -0.853217 -0.266583 -0.000000 -0.000000  1.076932  1.109487
  0C   1dz2       0.000000  0.000000 -0.010235 -0.270618  0.000000  0.000000
  0C   1dxz       0.108046 -0.345809 -0.000000  0.000000  0.007178 -0.006968
  0C   1dyz       0.000000 -0.000000  0.000000  0.000000  0.000000 -0.000000
  0C   1dx2y2    -0.000000 -0.000000  0.017727  0.468723  0.000000  0.000000
  0C   1dxy      -0.345809 -0.108046 -0.000000  0.000000 -0.006968 -0.007178
  1O   1s         0.000000  0.000000  0.005401 -0.210495 -0.000000 -0.000000
  1O   2s         0.000000  0.000000  0.033699 -2.057012 -0.000000 -0.000000
  1O   3s         0.000002  0.000001 -2.659462  3.224476  0.000000  0.000000
  1O   1pz        0.055538 -0.177753 -0.000000 -0.000000 -0.579568  0.562563
  1O   1px        0.000000  0.000000 -0.112590 -0.102002 -0.000000 -0.000000
  1O   1py       -0.177753 -0.055538 -0.000000 -0.000000  0.562563  0.579568
  1O   2pz       -0.517746  1.657082  0.000000  0.000000  0.871659 -0.846083
  1O   2px       -0.000002 -0.000001  2.741113 -0.162798 -0.000000 -0.000000
  1O   2py        1.657082  0.517746  0.000001  0.000000 -0.846083 -0.871659
  1O   1dz2      -0.000000 -0.000000  0.007807 -0.014758  0.000000  0.000000
  1O   1dxz       0.000283 -0.000905 -0.000000  0.000000 -0.083741  0.081284
  1O   1dyz      -0.000000  0.000000  0.000000  0.000000  0.000000 -0.000000
  1O   1dx2y2     0.000000  0.000000 -0.013522  0.025561  0.000000  0.000000
  1O   1dxy      -0.000905 -0.000283 -0.000000 -0.000000  0.081284  0.083741
  2O   1s         0.000000  0.000000 -0.013851 -0.214476 -0.000000 -0.000000
  2O   2s         0.000000  0.000000 -0.078167 -2.168461 -0.000000 -0.000000
  2O   3s        -0.000001 -0.000000  2.665330  3.513391  0.000000  0.000001
  2O   1pz       -0.117164  0.374991  0.000000 -0.000000 -0.564831  0.548258
  2O   1px        0.000000  0.000000 -0.125405  0.134577  0.000000  0.000000
  2O   1py        0.374991  0.117164  0.000000 -0.000000  0.548258  0.564831
  2O   2pz        0.023524 -0.075291 -0.000000  0.000000  0.882698 -0.856798
  2O   2px       -0.000001 -0.000000  2.731701  0.168334  0.000000  0.000000
  2O   2py       -0.075291 -0.023524 -0.000000  0.000000 -0.856798 -0.882698
  2O   1dz2       0.000000  0.000000 -0.008009 -0.018044  0.000000  0.000000
  2O   1dxz       0.027406 -0.087714 -0.000000  0.000000  0.089095 -0.086481
  2O   1dyz       0.000000 -0.000000 -0.000000  0.000000  0.000000 -0.000000
  2O   1dx2y2     0.000000  0.000000  0.013872  0.031254  0.000000  0.000000
  2O   1dxy      -0.087714 -0.027406 -0.000000  0.000000 -0.086481 -0.089095
                     24        25        26        27        28        29
                   1.36423   1.36423   1.59261   2.03022   2.56716   2.56717
                   0.00000   0.00000   0.00000   0.00000   0.00000   0.00000
                  --------  --------  --------  --------  --------  --------
  0C   1s         0.000000  0.000000 -0.005566  0.032834  0.000000  0.000000
  0C   2s        -0.000000 -0.000000  0.008315 -6.737106 -0.000000 -0.000000
  0C   3s        -0.000000 -0.000000  0.062389 -1.670390 -0.000000 -0.000000
  0C   1pz        0.000000 -0.000000  0.000000  0.000000  0.000000 -0.000000
  0C   1px       -0.000000  0.000000  0.089199 -0.033905 -0.000000 -0.000000
  0C   1py        0.000000  0.000000  0.000000  0.000000 -0.000000 -0.000000
  0C   2pz       -0.000001  0.000000 -0.000000 -0.000000  0.000000 -0.000000
  0C   2px       -0.000000 -0.000000  3.287195 -0.056680 -0.000000 -0.000000
  0C   2py       -0.000000 -0.000001 -0.000000 -0.000000 -0.000000 -0.000000
  0C   1dz2       0.000000  0.741870  0.000562 -0.316469 -0.018412  0.000000
  0C   1dxz       0.000000 -0.000000  0.000000  0.000000 -0.000000  0.000000
  0C   1dyz      -0.856642  0.000000 -0.000000  0.000000  0.000000  0.021258
  0C   1dx2y2     0.000000  0.428319 -0.000973  0.548141 -0.010630 -0.000000
  0C   1dxy       0.000000  0.000000  0.000000  0.000000  0.000000  0.000000
  1O   1s        -0.000000 -0.000000  0.221002  0.159303  0.000000 -0.000000
  1O   2s        -0.000000 -0.000000  1.612428  0.504480  0.000000  0.000000
  1O   3s         0.000000  0.000000 -5.320427  3.185433  0.000000  0.000000
  1O   1pz       -0.000001  0.000000 -0.000000 -0.000000  0.000000 -0.000000
  1O   1px       -0.000000 -0.000000  0.364891 -0.778904 -0.000000 -0.000000
  1O   1py       -0.000000 -0.000001 -0.000000 -0.000000 -0.000000 -0.000000
  1O   2pz        0.000001 -0.000000 -0.000000  0.000000  0.000000 -0.000000
  1O   2px       -0.000000 -0.000000  0.154441 -1.154227 -0.000000 -0.000000
  1O   2py        0.000000  0.000001 -0.000000  0.000000 -0.000000 -0.000000
  1O   1dz2       0.000000  0.118534 -0.013259 -0.010116 -0.627522  0.000000
  1O   1dxz      -0.000000  0.000000  0.000000 -0.000000  0.000000 -0.000000
  1O   1dyz      -0.136868  0.000000  0.000000 -0.000000  0.000000  0.724602
  1O   1dx2y2     0.000000  0.068436  0.022965  0.017521 -0.362300  0.000000
  1O   1dxy      -0.000000 -0.000000  0.000000 -0.000000 -0.000000 -0.000000
  2O   1s        -0.000000 -0.000000 -0.206975  0.167485  0.000000  0.000000
  2O   2s        -0.000000 -0.000000 -1.509330  0.565957  0.000000  0.000000
  2O   3s         0.000000  0.000000  5.165819  3.616790 -0.000000 -0.000000
  2O   1pz       -0.000000  0.000000 -0.000000 -0.000000 -0.000000  0.000000
  2O   1px        0.000000 -0.000000  0.401189  0.772335  0.000000  0.000000
  2O   1py       -0.000000 -0.000000  0.000000 -0.000000  0.000000  0.000000
  2O   2pz        0.000001 -0.000000  0.000000  0.000000 -0.000000  0.000000
  2O   2px        0.000000  0.000000  0.016103  1.430133  0.000000  0.000000
  2O   2py        0.000000  0.000001  0.000000  0.000000  0.000000  0.000000
  2O   1dz2       0.000000  0.117894  0.009780 -0.032648  0.622135 -0.000000
  2O   1dxz       0.000000 -0.000000  0.000000  0.000000  0.000000 -0.000000
  2O   1dyz      -0.136127  0.000000 -0.000000  0.000000 -0.000000 -0.718378
  2O   1dx2y2     0.000000  0.068066 -0.016940  0.056549  0.359190 -0.000000
  2O   1dxy       0.000000  0.000000  0.000000  0.000000 -0.000000 -0.000000
                     30        31        32        33        34        35
                   2.96061   2.96061   3.24293   3.35003   3.56454   3.56454
                   0.00000   0.00000   0.00000   0.00000   0.00000   0.00000
                  --------  --------  --------  --------  --------  --------
  0C   1s        -0.000000 -0.000000  0.341558  0.282855  0.000000 -0.000000
  0C   2s        -0.000000 -0.000000  7.896896  5.060575 -0.000000  0.000000
  0C   3s        -0.000000 -0.000000  1.082904  0.626537  0.000000 -0.000000
  0C   1pz       -0.001918  0.002178 -0.000000 -0.000000  0.000000  0.000000
  0C   1px        0.000000  0.000000 -0.122196  0.062903 -0.000000  0.000000
  0C   1py        0.002178  0.001918 -0.000000 -0.000000 -0.000000  0.000000
  0C   2pz       -0.008021  0.009111  0.000000  0.000000  0.000000  0.000000
  0C   2px       -0.000000 -0.000000  0.084583 -0.038991 -0.000000  0.000000
  0C   2py        0.009111  0.008021  0.000000  0.000000 -0.000000  0.000000
  0C   1dz2      -0.000000 -0.000000 -0.593880 -0.422788  0.910270 -0.000000
  0C   1dxz      -0.251778  0.285989  0.000000 -0.000000  0.000000  0.000000
  0C   1dyz       0.000000 -0.000000 -0.000000  0.000000  0.000000  1.051086
  0C   1dx2y2     0.000000  0.000000  1.028630  0.732290  0.525545 -0.000000
  0C   1dxy       0.285989  0.251778  0.000000 -0.000000 -0.000000  0.000000
  1O   1s        -0.000000 -0.000000  0.012263 -0.002312  0.000000 -0.000000
  1O   2s        -0.000000 -0.000000 -1.783975 -1.774521  0.000000 -0.000000
  1O   3s         0.000000  0.000000 -3.974745  0.397159  0.000000 -0.000000
  1O   1pz        0.209272 -0.237707 -0.000000  0.000000  0.000000  0.000000
  1O   1px        0.000000  0.000000  0.612292  0.333307 -0.000000  0.000000
  1O   1py       -0.237707 -0.209272 -0.000000  0.000000 -0.000000  0.000000
  1O   2pz       -0.145948  0.165779 -0.000000 -0.000000 -0.000000 -0.000000
  1O   2px       -0.000000 -0.000000  2.078775 -0.489468 -0.000000  0.000000
  1O   2py        0.165779  0.145948 -0.000000 -0.000000  0.000000 -0.000000
  1O   1dz2       0.000000  0.000000  0.571563 -0.208786 -0.786783  0.000000
  1O   1dxz       0.453984 -0.515670  0.000000  0.000000  0.000000  0.000000
  1O   1dyz       0.000000 -0.000000  0.000000 -0.000000 -0.000000 -0.908498
  1O   1dx2y2     0.000000  0.000000 -0.989976  0.361627 -0.454249  0.000000
  1O   1dxy      -0.515670 -0.453984  0.000000  0.000000 -0.000000  0.000000
  2O   1s         0.000000  0.000000 -0.007298  0.008538  0.000000 -0.000000
  2O   2s         0.000000  0.000000 -2.547515 -1.189135  0.000000 -0.000000
  2O   3s        -0.000000 -0.000000 -1.394450 -3.667412 -0.000000  0.000000
  2O   1pz       -0.218960  0.248711 -0.000000 -0.000000  0.000000  0.000000
  2O   1px        0.000000  0.000000 -0.532963 -0.414971  0.000000 -0.000000
  2O   1py        0.248711  0.218960 -0.000000 -0.000000 -0.000000  0.000000
  2O   2pz        0.160703 -0.182539 -0.000000 -0.000000 -0.000000 -0.000000
  2O   2px       -0.000000 -0.000000 -0.417089 -2.049831  0.000000 -0.000000
  2O   2py       -0.182539 -0.160703 -0.000000 -0.000000  0.000000 -0.000000
  2O   1dz2      -0.000000 -0.000000  0.010410  0.614102 -0.824809  0.000000
  2O   1dxz       0.459385 -0.521805 -0.000000 -0.000000 -0.000000 -0.000000
  2O   1dyz      -0.000000  0.000000  0.000000 -0.000000 -0.000000 -0.952409
  2O   1dx2y2    -0.000000 -0.000000 -0.018031 -1.063655 -0.476203  0.000000
  2O   1dxy      -0.521805 -0.459385 -0.000000 -0.000000  0.000000 -0.000000
                     36        37        38        39        40        41
                   4.15350   4.15350   4.49409   4.49409   6.37248   7.15181
                   0.00000   0.00000   0.00000   0.00000   0.00000   0.00000
                  --------  --------  --------  --------  --------  --------
  0C   1s         0.000000  0.000000  0.000000  0.000000 -0.624300 -0.080880
  0C   2s        -0.000000 -0.000000 -0.000000 -0.000000 20.600288  5.908046
  0C   3s        -0.000000 -0.000000  0.000000  0.000000  0.393226  0.234731
  0C   1pz       -0.026767  0.102297  0.867000 -2.374969 -0.000000 -0.000000
  0C   1px       -0.000000 -0.000000  0.000000  0.000000  0.570174 -5.686849
  0C   1py        0.102297  0.026767 -2.374969 -0.867000 -0.000000 -0.000000
  0C   2pz       -0.005609  0.021435  0.265427 -0.727082  0.000000  0.000000
  0C   2px       -0.000000 -0.000000  0.000000  0.000000 -0.035154 -0.063052
  0C   2py        0.021435  0.005609 -0.727082 -0.265427  0.000000  0.000000
  0C   1dz2       0.000000  0.000000  0.000000  0.000000 -3.149722 -0.737950
  0C   1dxz       0.681917 -2.606097 -0.016479  0.045140 -0.000000  0.000000
  0C   1dyz      -0.000000  0.000000 -0.000000  0.000000 -0.000000  0.000000
  0C   1dx2y2    -0.000000 -0.000000 -0.000000 -0.000000  5.455479  1.278167
  0C   1dxy      -2.606097 -0.681917  0.045140  0.016479 -0.000000  0.000000
  1O   1s         0.000000  0.000000 -0.000000 -0.000000  0.080121  0.213502
  1O   2s        -0.000000 -0.000000  0.000000  0.000000 -9.806412  1.306450
  1O   3s         0.000000  0.000000 -0.000000 -0.000000 -3.620549  1.137353
  1O   1pz       -0.368740  1.409222 -0.160870  0.440671 -0.000000 -0.000000
  1O   1px        0.000000  0.000000  0.000000  0.000000  2.105936 -1.287144
  1O   1py        1.409222  0.368740  0.440671  0.160870 -0.000000 -0.000000
  1O   2pz       -0.154243  0.589473 -0.347511  0.951936 -0.000000 -0.000000
  1O   2px       -0.000000 -0.000000  0.000000  0.000000  1.972037 -0.712964
  1O   2py        0.589473  0.154243  0.951936  0.347511 -0.000000 -0.000000
  1O   1dz2      -0.000000  0.000000  0.000000  0.000000 -0.233634 -0.362482
  1O   1dxz       0.250071 -0.955700  0.381940 -1.046246  0.000000 -0.000000
  1O   1dyz      -0.000000  0.000000  0.000000 -0.000000  0.000000 -0.000000
  1O   1dx2y2    -0.000000 -0.000000 -0.000000 -0.000000  0.404665  0.627837
  1O   1dxy      -0.955700 -0.250071 -1.046246 -0.381940  0.000000 -0.000000
  2O   1s        -0.000000 -0.000000 -0.000000 -0.000000  0.183811 -0.124556
  2O   2s         0.000000  0.000000  0.000000  0.000000 -9.223624 -6.331884
  2O   3s        -0.000000 -0.000000 -0.000000 -0.000000 -3.547184 -3.566846
  2O   1pz        0.395994 -1.513378 -0.207206  0.567598 -0.000000 -0.000000
  2O   1px        0.000000  0.000000 -0.000000 -0.000000 -1.210550 -2.141957
  2O   1py       -1.513378 -0.395994  0.567598  0.207206 -0.000000 -0.000000
  2O   2pz        0.168902 -0.645497 -0.380614  1.042614 -0.000000 -0.000000
  2O   2px        0.000000  0.000000  0.000000  0.000000 -1.684894 -1.812016
  2O   2py       -0.645497 -0.168902  1.042614  0.380614 -0.000000 -0.000000
  2O   1dz2       0.000000  0.000000  0.000000  0.000000 -0.341760  0.171760
  2O   1dxz       0.222374 -0.849852 -0.414130  1.134425  0.000000 -0.000000
  2O   1dyz       0.000000 -0.000000  0.000000 -0.000000  0.000000  0.000000
  2O   1dx2y2     0.000000  0.000000 -0.000000 -0.000000  0.591946 -0.297497
  2O   1dxy      -0.849852 -0.222374  1.134425  0.414130  0.000000 -0.000000

MULLIKEN ATOMIC CHARGES
-----------------------
   0 C :    0.109896
   1 O :   -0.157045
   2 O :    0.047149
Sum of atomic charges:   -0.0000000

LOEWDIN ATOMIC CHARGES
----------------------
   0 C :   -0.819537
   1 O :    0.378643
   2 O :    0.440894

  Mayer bond orders larger than 0.100000
B(  0-C ,  1-O ) :   1.7803 B(  0-C ,  2-O ) :   1.9034 B(  1-O ,  2-O ) :   1.3378

FINAL SINGLE POINT ENERGY      -182.725051721607

DIPOLE MOMENT
-------------

Method             : SCF
Type of density    : Electron Density
Multiplicity       :   1
Irrep              :   0
Energy             :  -182.7250517216074002 Eh
Relativity type    :
Basis              : AO
                                X                 Y                 Z
Electronic contribution:     -0.127524790       0.000000067       0.000000007
Nuclear contribution   :      0.000159295      -0.000000000      -0.000000000
                        -----------------------------------------
Total Dipole Moment    :     -0.127365495       0.000000067       0.000000007
                        -----------------------------------------
Magnitude (a.u.)       :      0.127365495
Magnitude (Debye)      :      0.323737360

VIBRATIONAL FREQUENCIES
-----------------------

Scaling factor for frequencies =  1.000000000  (already applied!)

     0:       0.00 cm**-1
     1:       0.00 cm**-1
     2:       0.00 cm**-1
     3:       0.00 cm**-1
     4:       0.00 cm**-1
     5:   -6585.34 cm**-1  ***imaginary mode***
     6:   -6585.34 cm**-1  ***imaginary mode***
     7:    7329.86 cm**-1
     8:   14131.68 cm**-1

IR SPECTRUM
-----------

 Mode   freq       eps      Int      T**2         TX        TY        TZ
       cm**-1   L/(mol*cm) km/mol    a.u.
----------------------------------------------------------------------------
  7:   7329.86   0.002259   11.42  0.000096  (-0.009807  0.000000  0.000000)
  8:  14131.68   0.251677  1271.87  0.005558  ( 0.074550  0.000000  0.000000)

--------------------------
THERMOCHEMISTRY AT 298.15K
--------------------------

Temperature         ...   298.15 K
Pressure            ...     1.00 atm
Total Mass          ...    44.01 AMU
Quasi RRHO          ...     True
Cut-Off Frequency   ...     1.00 cm^-1
The molecule is recognized as being linear

Throughout the following assumptions are being made:
  (1) The electronic state is orbitally nondegenerate
  (2) There are no thermally accessible electronically excited states
  (3) Hindered rotations indicated by low frequency modes are not
      treated as such but are treated as vibrations and this may
      cause some error
  (4) All equations used are the standard statistical mechanics
      equations for an ideal gas
  (5) All vibrations are strictly harmonic

freq.    7329.86  E(vib)   ...       0.00
freq.   14131.68  E(vib)   ...       0.00

------------
INNER ENERGY
------------

The inner energy is: U= E(el) + E(ZPE) + E(vib) + E(rot) + E(trans)
    E(el)   - is the total energy from the electronic structure calculation
              = E(kin-el) + E(nuc-el) + E(el-el) + E(nuc-nuc)
    E(ZPE)  - the the zero temperature vibrational energy from the frequency calculation
    E(vib)  - the the finite temperature correction to E(ZPE) due to population
              of excited vibrational states
    E(rot)  - is the rotational thermal energy
    E(trans)- is the translational thermal energy

Summary of contributions to the inner energy U:
Electronic energy                ...   -182.72505172 Eh
Zero point energy                ...      0.04889298 Eh      30.68 kcal/mol
Thermal vibrational correction   ...      0.00000000 Eh       0.00 kcal/mol
Thermal rotational correction    ...      0.00094418 Eh       0.59 kcal/mol
Thermal translational correction ...      0.00141627 Eh       0.89 kcal/mol
-----------------------------------------------------------------------
Total thermal energy                   -182.67379829 Eh

Summary of corrections to the electronic energy:
(perhaps to be used in another calculation)
Total thermal correction                  0.00236045 Eh       1.48 kcal/mol
Non-thermal (ZPE) correction              0.04889298 Eh      30.68 kcal/mol
-----------------------------------------------------------------------
Total correction                          0.05125343 Eh      32.16 kcal/mol

--------
ENTHALPY
--------

The enthalpy is H = U + kB*T
                kB is Boltzmann's constant
Total thermal energy              ...   -182.67379829 Eh
Thermal Enthalpy correction       ...      0.00094421 Eh       0.59 kcal/mol
-----------------------------------------------------------------------
Total Enthalpy                    ...   -182.67285408 Eh

Note: Rotational entropy computed according to Herzberg
Infrared and Raman Spectra, Chapter V,1, Van Nostrand Reinhold, 1945
Point Group:  C(inf)v, Symmetry Number:   1
Rotational constants in cm-1:     0.000000     1.389841     1.389841

Vibrational entropy computed according to the QRRHO of S. Grimme
Chem.Eur.J. 2012 18 9955 using a reference frequency of 100.0 cm-1

-------
ENTROPY
-------

The entropy contributions are T*S = T*(S(el)+S(vib)+S(rot)+S(trans))
     S(el)   - electronic entropy
     S(vib)  - vibrational entropy
     S(rot)  - rotational entropy
     S(trans)- translational entropy
The entropies will be listed as multiplied by the temperature to get
units of energy

Electronic entropy                ...      0.00000000 Eh      0.00 kcal/mol
Vibrational entropy               ...     -0.00000000 Eh     -0.00 kcal/mol
Rotational entropy                ...      0.00566945 Eh      3.56 kcal/mol
Translational entropy             ...      0.01770880 Eh     11.11 kcal/mol
-----------------------------------------------------------------------
Final entropy term                ...      0.02337825 Eh     14.67 kcal/mol

-------------------
GIBBS FREE ENERGY
-------------------

The Gibbs free energy is G = H - T*S

Total enthalpy                    ...   -182.67285408 Eh
Total entropy correction          ...     -0.02337825 Eh    -14.67 kcal/mol
-----------------------------------------------------------------------
Final Gibbs free energy         ...   -182.69623233 Eh

For completeness - the Gibbs free energy minus the electronic energy
G-E(el)                           ...      0.02881939 Eh     18.08 kcal/mol

                             ****ORCA TERMINATED NORMALLY****
TOTAL RUN TIME: 0 days 0 hours 0 minutes 14 seconds 919 msec
