                         Program Version 6.0.1  -  RELEASE   -
|  1> ! B3LYP def2-SVP TightSCF Freq ENGRAD
|  2> * xyz 0 1
|  3>    C         -0.0148897368          0.0000000193          0.0000000017
|  4>    O          0.6204357055         -0.0000000100         -0.0000000009
|  5>    O         -0.6107498391         -0.0000000093         -0.0000000007
|  6> *
|  7> %elprop
|  8>  Polar 1
|  9> end
| 10>
| 11>                          ****END OF INPUT****

CARTESIAN COORDINATES (ANGSTROEM)
---------------------------------
  C     -0.014890    0.000000    0.000000
  O      0.620436   -0.000000   -0.000000
  O     -0.610750   -0.000000   -0.000000

 Total Charge           Charge          ....    0
 Multiplicity           Mult            ....    1
 Number of Electrons    NEL             ....   22
 Basis Dimension        Dim             ....   42

ORBITAL ENERGIES
----------------

  NO   OCC          E(Eh)            E(eV)
   0   2.0000     -19.252221      -523.8796
   1   2.0000     -19.162203      -521.4301
   2   2.0000     -10.748605      -292.4844
   3   2.0000      -1.281608       -34.8743
   4   2.0000      -1.187410       -32.3111
   5   2.0000      -0.974428       -26.5155
   6   2.0000      -0.974428       -26.5155
   7   2.0000      -0.518669       -14.1137
   8   2.0000      -0.371620       -10.1123
   9   2.0000      -0.371620       -10.1123
  10   2.0000      -0.355018        -9.6605
  11   0.0000       0.152460         4.1486
  12   0.0000       0.225823         6.1450
  13   0.0000       0.225823         6.1450
  14   0.0000       0.315847         8.5946
  15   0.0000       0.729872        19.8608

MULLIKEN ATOMIC CHARGES
-----------------------
   0 C :    0.109897
   1 O :   -0.157045
   2 O :    0.047149
Sum of atomic charges:   -0.0000000

LOEWDIN ATOMIC CHARGES
----------------------
   0 C :   -0.819536
   1 O :    0.378643
   2 O :    0.440894

  Mayer bond orders larger than 0.100000
B(  0-C ,  1-O ) :   1.7803 B(  0-C ,  2-O ) :   1.9034 B(  1-O ,  2-O ) :   1.3378

FINAL SINGLE POINT ENERGY      -182.725051721199

DIPOLE MOMENT
-------------

Method             : SCF
Type of density    : Electron Density
Multiplicity       :   1
Irrep              :   0
Energy             :  -182.7250517211994350 Eh
Relativity type    :
Basis              : AO
                                X                 Y                 Z
Electronic contribution:     -0.127524626       0.000000067       0.000000007
Nuclear contribution   :      0.000159295      -0.000000000      -0.000000000
                        -----------------------------------------
Total Dipole Moment    :     -0.127365331       0.000000066       0.000000007
                        -----------------------------------------
Magnitude (a.u.)       :      0.127365331
Magnitude (Debye)      :      0.323736944

VIBRATIONAL FREQUENCIES
-----------------------

Scaling factor for frequencies =  1.000000000  (already applied!)

     0:       0.00 cm**-1
     1:       0.00 cm**-1
     2:       0.00 cm**-1
     3:       0.00 cm**-1
     4:       0.00 cm**-1
     5:   -6585.35 cm**-1  ***imaginary mode***
     6:   -6585.35 cm**-1  ***imaginary mode***
     7:    7329.85 cm**-1
     8:   14131.67 cm**-1

IR SPECTRUM
-----------

 Mode   freq       eps      Int      T**2         TX        TY        TZ
       cm**-1   L/(mol*cm) km/mol    a.u.
----------------------------------------------------------------------------
  7:   7329.85   0.002259   11.42  0.000096  (-0.009808  0.000000  0.000000)
  8:  14131.67   0.251675  1271.86  0.005558  ( 0.074550  0.000000  0.000000)

--------------------------
THERMOCHEMISTRY AT 298.15K
--------------------------

Temperature         ...   298.15 K
Pressure            ...     1.00 atm
Total Mass          ...    44.01 AMU
Quasi RRHO          ...     True
Cut-Off Frequency   ...     1.00 cm^-1
The molecule is recognized as being linear

Throughout the following assumptions are being made:
  (1) The electronic state is orbitally nondegenerate
  (2) There are no thermally accessible electronically excited states
  (3) Hindered rotations indicated by low frequency modes are not
      treated as such but are treated as vibrations and this may
      cause some error
  (4) All equations used are the standard statistical mechanics
      equations for an ideal gas
  (5) All vibrations are strictly harmonic

freq.    7329.85  E(vib)   ...       0.00
freq.   14131.67  E(vib)   ...       0.00

------------
INNER ENERGY
------------

The inner energy is: U= E(el) + E(ZPE) + E(vib) + E(rot) + E(trans)
    E(el)   - is the total energy from the electronic structure calculation
              = E(kin-el) + E(nuc-el) + E(el-el) + E(nuc-nuc)
    E(ZPE)  - the the zero temperature vibrational energy from the frequency calculation
    E(vib)  - the the finite temperature correction to E(ZPE) due to population
              of excited vibrational states
    E(rot)  - is the rotational thermal energy
    E(trans)- is the translational thermal energy

Summary of contributions to the inner energy U:
Electronic energy                ...   -182.72505172 Eh
Zero point energy                ...      0.04889296 Eh      30.68 kcal/mol
Thermal vibrational correction   ...      0.00000000 Eh       0.00 kcal/mol
Thermal rotational correction    ...      0.00094418 Eh       0.59 kcal/mol
Thermal translational correction ...      0.00141627 Eh       0.89 kcal/mol
-----------------------------------------------------------------------
Total thermal energy                   -182.67379831 Eh

Summary of corrections to the electronic energy:
(perhaps to be used in another calculation)
Total thermal correction                  0.00236045 Eh       1.48 kcal/mol
Non-thermal (ZPE) correction              0.04889296 Eh      30.68 kcal/mol
-----------------------------------------------------------------------
Total correction                          0.05125341 Eh      32.16 kcal/mol

--------
ENTHALPY
--------

The enthalpy is H = U + kB*T
                kB is Boltzmann's constant
Total thermal energy              ...   -182.67379831 Eh
Thermal Enthalpy correction       ...      0.00094421 Eh       0.59 kcal/mol
-----------------------------------------------------------------------
Total Enthalpy                    ...   -182.67285410 Eh

Note: Rotational entropy computed according to Herzberg
Infrared and Raman Spectra, Chapter V,1, Van Nostrand Reinhold, 1945
Point Group:  C(inf)v, Symmetry Number:   1
Rotational constants in cm-1:     0.000000     1.389841     1.389841

Vibrational entropy computed according to the QRRHO of S. Grimme
Chem.Eur.J. 2012 18 9955 using a reference frequency of 100.0 cm-1

-------
ENTROPY
-------

The entropy contributions are T*S = T*(S(el)+S(vib)+S(rot)+S(trans))
     S(el)   - electronic entropy
     S(vib)  - vibrational entropy
     S(rot)  - rotational entropy
     S(trans)- translational entropy
The entropies will be listed as multiplied by the temperature to get
units of energy

Electronic entropy                ...      0.00000000 Eh      0.00 kcal/mol
Vibrational entropy               ...     -0.00000000 Eh     -0.00 kcal/mol
Rotational entropy                ...      0.00566945 Eh      3.56 kcal/mol
Translational entropy             ...      0.01770880 Eh     11.11 kcal/mol
-----------------------------------------------------------------------
Final entropy term                ...      0.02337825 Eh     14.67 kcal/mol

-------------------
GIBBS FREE ENERGY
-------------------

The Gibbs free energy is G = H - T*S

Total enthalpy                    ...   -182.67285410 Eh
Total entropy correction          ...     -0.02337825 Eh    -14.67 kcal/mol
-----------------------------------------------------------------------
Final Gibbs free energy         ...   -182.69623235 Eh

For completeness - the Gibbs free energy minus the electronic energy
G-E(el)                           ...      0.02881937 Eh     18.08 kcal/mol

                             ****ORCA TERMINATED NORMALLY****
TOTAL RUN TIME: 0 days 0 hours 0 minutes 17 seconds 116 msec
