                         Program Version 6.0.1  -  RELEASE   -
|  1> ! B3LYP def2-SVP TightSCF
|  2>
|  3> * xyz 0 1
|  4>  C      0.0000017864     0.0000000139     0.0000000066
|  5>  O      0.5389004824    -0.0000000159    -0.0000000086
|  6>  O     -0.5389011546    -0.0000000053    -0.0000000038
|  7> *
|  8>
|  9>                          ****END OF INPUT****

CARTESIAN COORDINATES (ANGSTROEM)
---------------------------------
  C      0.000002    0.000000    0.000000
  O      0.538900   -0.000000   -0.000000
  O     -0.538901   -0.000000   -0.000000

 Total Charge           Charge          ....    0
 Multiplicity           Mult            ....    1
 Number of Electrons    NEL             ....   22
 Basis Dimension        Dim             ....   42

ORBITAL ENERGIES
----------------

  NO   OCC          E(Eh)            E(eV)
   0   2.0000     -19.357329      -526.7397
   1   2.0000     -19.354557      -526.6643
   2   2.0000     -11.263722      -306.5015
   3   2.0000      -1.185519       -32.2596
   4   2.0000      -1.168162       -31.7873
   5   2.0000      -1.159702       -31.5571
   6   2.0000      -1.159702       -31.5571
   7   2.0000      -0.532146       -14.4804
   8   2.0000      -0.376823       -10.2539
   9   2.0000      -0.376823       -10.2539
  10   2.0000      -0.256061        -6.9678
  11   0.0000       0.153823         4.1857
  12   0.0000       0.198563         5.4032
  13   0.0000       0.198563         5.4032
  14   0.0000       0.304047         8.2735
  15   0.0000       0.769252        20.9324

MULLIKEN ATOMIC CHARGES
-----------------------
   0 C :    0.117951
   1 O :   -0.058964
   2 O :   -0.058988
Sum of atomic charges:    0.0000000

LOEWDIN ATOMIC CHARGES
----------------------
   0 C :   -0.886274
   1 O :    0.443140
   2 O :    0.443134

  Mayer bond orders larger than 0.100000
B(  0-C ,  1-O ) :   1.3243 B(  0-C ,  2-O ) :   1.3242 B(  1-O ,  2-O ) :   2.0215

FINAL SINGLE POINT ENERGY      -179.022848562488

DIPOLE MOMENT
-------------

Method             : SCF
Type of density    : Electron Density
Multiplicity       :   1
Irrep              :   0
Energy             :  -179.0228485624877237 Eh
Relativity type    :
Basis              : AO
                                X                 Y                 Z
Electronic contribution:      0.000011251       0.000000068       0.000000036
Nuclear contribution   :     -0.000000017      -0.000000000      -0.000000000
                        -----------------------------------------
Total Dipole Moment    :      0.000011234       0.000000068       0.000000036
                        -----------------------------------------
Magnitude (a.u.)       :      0.000011234
Magnitude (Debye)      :      0.000028555

Rotational constants in cm-1:             0.000000             1.814080             1.814080
Rotational constants in MHz :             0.000000         54384.743360         54384.743360

                             ****ORCA TERMINATED NORMALLY****
TOTAL RUN TIME: 0 days 0 hours 0 minutes 1 seconds 795 msec
