                         Program Version 6.0.1  -  RELEASE   -
|  1> ! B3LYP def2-SVP TightSCF Freq
|  2> * xyz 0 1
|  3>    C         -0.0000014013         -0.0013879213         -0.0289426851
|  4>    O          0.6155937120          0.0004514125          0.0094134748
|  5>    O         -0.6155923099          0.0004513865          0.0094129693
|  6> *
|  7> %elprop
|  8>  Polar 1
|  9> end
| 10>
| 11>                          ****END OF INPUT****

CARTESIAN COORDINATES (ANGSTROEM)
---------------------------------
  C     -0.000001   -0.001388   -0.028943
  O      0.615594    0.000451    0.009413
  O     -0.615592    0.000451    0.009413

 Total Charge           Charge          ....    0
 Multiplicity           Mult            ....    1
 Number of Electrons    NEL             ....   22
 Basis Dimension        Dim             ....   42

ORBITAL ENERGIES
----------------

  NO   OCC          E(Eh)            E(eV)
   0   2.0000     -19.201459      -522.4983
   1   2.0000     -19.201188      -522.4909
   2   2.0000     -10.733238      -292.0662
   3   2.0000      -1.279630       -34.8205
   4   2.0000      -1.195859       -32.5410
   5   2.0000      -0.969116       -26.3710
   6   2.0000      -0.967631       -26.3306
   7   2.0000      -0.519511       -14.1366
   8   2.0000      -0.371229       -10.1016
   9   2.0000      -0.367563       -10.0019
  10   2.0000      -0.357551        -9.7295
  11   0.0000       0.151882         4.1329
  12   0.0000       0.226179         6.1547
  13   0.0000       0.226882         6.1738
  14   0.0000       0.315726         8.5913
  15   0.0000       0.713294        19.4097

MULLIKEN ATOMIC CHARGES
-----------------------
   0 C :    0.107414
   1 O :   -0.053718
   2 O :   -0.053696
Sum of atomic charges:   -0.0000000

LOEWDIN ATOMIC CHARGES
----------------------
   0 C :   -0.816766
   1 O :    0.408380
   2 O :    0.408386

  Mayer bond orders larger than 0.100000
B(  0-C ,  1-O ) :   1.8570 B(  0-C ,  2-O ) :   1.8570 B(  1-O ,  2-O ) :   1.3030

FINAL SINGLE POINT ENERGY      -182.807447536170

DIPOLE MOMENT
-------------

Method             : SCF
Type of density    : Electron Density
Multiplicity       :   1
Irrep              :   0
Energy             :  -182.8074475361703719 Eh
Relativity type    :
Basis              : AO
                                X                 Y                 Z
Electronic contribution:     -0.000013721      -0.004130210      -0.086127650
Nuclear contribution   :      0.000000017       0.000014848       0.000309633
                        -----------------------------------------
Total Dipole Moment    :     -0.000013704      -0.004115362      -0.085818017
                        -----------------------------------------
Magnitude (a.u.)       :      0.085916636
Magnitude (Debye)      :      0.218382734

VIBRATIONAL FREQUENCIES
-----------------------

Scaling factor for frequencies =  1.000000000  (already applied!)

     0:       0.00 cm**-1
     1:       0.00 cm**-1
     2:       0.00 cm**-1
     3:       0.00 cm**-1
     4:       0.00 cm**-1
     5:       0.00 cm**-1
     6:   -6469.09 cm**-1  ***imaginary mode***
     7:    7367.76 cm**-1
     8:   13990.42 cm**-1

IR SPECTRUM
-----------

 Mode   freq       eps      Int      T**2         TX        TY        TZ
       cm**-1   L/(mol*cm) km/mol    a.u.
----------------------------------------------------------------------------
  7:   7367.76   0.000018    0.09  0.000001  (-0.000001 -0.000042 -0.000880)
  8:  13990.42   0.260581  1316.87  0.005812  ( 0.076239  0.000000 -0.000000)

--------------------------
THERMOCHEMISTRY AT 298.15K
--------------------------

Temperature         ...   298.15 K
Pressure            ...     1.00 atm
Total Mass          ...    44.01 AMU
Quasi RRHO          ...     True
Cut-Off Frequency   ...     1.00 cm^-1

Throughout the following assumptions are being made:
  (1) The electronic state is orbitally nondegenerate
  (2) There are no thermally accessible electronically excited states
  (3) Hindered rotations indicated by low frequency modes are not
      treated as such but are treated as vibrations and this may
      cause some error
  (4) All equations used are the standard statistical mechanics
      equations for an ideal gas
  (5) All vibrations are strictly harmonic

freq.    7367.76  E(vib)   ...       0.00
freq.   13990.42  E(vib)   ...       0.00

------------
INNER ENERGY
------------

The inner energy is: U= E(el) + E(ZPE) + E(vib) + E(rot) + E(trans)
    E(el)   - is the total energy from the electronic structure calculation
              = E(kin-el) + E(nuc-el) + E(el-el) + E(nuc-nuc)
    E(ZPE)  - the the zero temperature vibrational energy from the frequency calculation
    E(vib)  - the the finite temperature correction to E(ZPE) due to population
              of excited vibrational states
    E(rot)  - is the rotational thermal energy
    E(trans)- is the translational thermal energy

Summary of contributions to the inner energy U:
Electronic energy                ...   -182.80744754 Eh
Zero point energy                ...      0.04865750 Eh      30.53 kcal/mol
Thermal vibrational correction   ...      0.00000000 Eh       0.00 kcal/mol
Thermal rotational correction    ...      0.00141627 Eh       0.89 kcal/mol
Thermal translational correction ...      0.00141627 Eh       0.89 kcal/mol
-----------------------------------------------------------------------
Total thermal energy                   -182.75595749 Eh

Summary of corrections to the electronic energy:
(perhaps to be used in another calculation)
Total thermal correction                  0.00283254 Eh       1.78 kcal/mol
Non-thermal (ZPE) correction              0.04865750 Eh      30.53 kcal/mol
-----------------------------------------------------------------------
Total correction                          0.05149004 Eh      32.31 kcal/mol

--------
ENTHALPY
--------

The enthalpy is H = U + kB*T
                kB is Boltzmann's constant
Total thermal energy              ...   -182.75595749 Eh
Thermal Enthalpy correction       ...      0.00094421 Eh       0.59 kcal/mol
-----------------------------------------------------------------------
Total Enthalpy                    ...   -182.75501329 Eh

Note: Rotational entropy computed according to Herzberg
Infrared and Raman Spectra, Chapter V,1, Van Nostrand Reinhold, 1945
Point Group:  C2v, Symmetry Number:   2
Rotational constants in cm-1:  1309.104544     1.390230     1.388755

Vibrational entropy computed according to the QRRHO of S. Grimme
Chem.Eur.J. 2012 18 9955 using a reference frequency of 100.0 cm-1

-------
ENTROPY
-------

The entropy contributions are T*S = T*(S(el)+S(vib)+S(rot)+S(trans))
     S(el)   - electronic entropy
     S(vib)  - vibrational entropy
     S(rot)  - rotational entropy
     S(trans)- translational entropy
The entropies will be listed as multiplied by the temperature to get
units of energy

Electronic entropy                ...      0.00000000 Eh      0.00 kcal/mol
Vibrational entropy               ...     -0.00000000 Eh     -0.00 kcal/mol
Rotational entropy                ...      0.00515754 Eh      3.24 kcal/mol
Translational entropy             ...      0.01770880 Eh     11.11 kcal/mol
-----------------------------------------------------------------------
Final entropy term                ...      0.02286634 Eh     14.35 kcal/mol

In case the symmetry of your molecule has not been determined correctly
or in case you have a reason to use a different symmetry number we print
out the resulting rotational entropy values for sn=1,12:

 non-linear molecules -----------------------------------
|  sn= 1 | S(rot)=       0.00581199 Eh      3.65 kcal/mol|
|  sn= 2 | S(rot)=       0.00515754 Eh      3.24 kcal/mol|
|  sn= 3 | S(rot)=       0.00477470 Eh      3.00 kcal/mol|
|  sn= 4 | S(rot)=       0.00450308 Eh      2.83 kcal/mol|
|  sn= 5 | S(rot)=       0.00429239 Eh      2.69 kcal/mol|
|  sn= 6 | S(rot)=       0.00412025 Eh      2.59 kcal/mol|
|  sn= 7 | S(rot)=       0.00397470 Eh      2.49 kcal/mol|
|  sn= 8 | S(rot)=       0.00384862 Eh      2.42 kcal/mol|
|  sn= 9 | S(rot)=       0.00373742 Eh      2.35 kcal/mol|
|  sn=10 | S(rot)=       0.00363794 Eh      2.28 kcal/mol|
|  sn=11 | S(rot)=       0.00354795 Eh      2.23 kcal/mol|
|  sn=12 | S(rot)=       0.00346579 Eh      2.17 kcal/mol|
 linear molecules ---------------------------------------
|  Dinfh | S(rot)=       0.00501573 Eh      3.15 kcal/mol|
|  Cinfv | S(rot)=       0.00567019 Eh      3.56 kcal/mol|
 --------------------------------------------------------

-------------------
GIBBS FREE ENERGY
-------------------

The Gibbs free energy is G = H - T*S

Total enthalpy                    ...   -182.75501329 Eh
Total entropy correction          ...     -0.02286634 Eh    -14.35 kcal/mol
-----------------------------------------------------------------------
Final Gibbs free energy         ...   -182.77787962 Eh

For completeness - the Gibbs free energy minus the electronic energy
G-E(el)                           ...      0.02956791 Eh     18.55 kcal/mol

                             ****ORCA TERMINATED NORMALLY****
TOTAL RUN TIME: 0 days 0 hours 0 minutes 14 seconds 910 msec
