                         Program Version 6.0.1  -  RELEASE   -
|  1> ! B3LYP def2-SVP TightSCF
|  2>
|  3> * xyz 0 1
|  4>  C     -0.0000029207     0.0000000217    -0.0000000009
|  5>  O      0.6521468368    -0.0000000066     0.0000000030
|  6>  O     -0.6521444471    -0.0000000117     0.0000000007
|  7> *
|  8>
|  9>                          ****END OF INPUT****

CARTESIAN COORDINATES (ANGSTROEM)
---------------------------------
  C     -0.000003    0.000000   -0.000000
  O      0.652147   -0.000000    0.000000
  O     -0.652144   -0.000000    0.000000

 Total Charge           Charge          ....    0
 Multiplicity           Mult            ....    1
 Number of Electrons    NEL             ....   22
 Basis Dimension        Dim             ....   42

ORBITAL ENERGIES
----------------

  NO   OCC          E(Eh)            E(eV)
   0   2.0000     -19.163913      -521.4766
   1   2.0000     -19.163886      -521.4758
   2   2.0000     -10.583397      -287.9889
   3   2.0000      -1.296378       -35.2762
   4   2.0000      -1.210679       -32.9442
   5   2.0000      -0.902945       -24.5704
   6   2.0000      -0.902945       -24.5704
   7   2.0000      -0.516560       -14.0563
   8   2.0000      -0.390674       -10.6308
   9   2.0000      -0.371560       -10.1107
  10   2.0000      -0.371560       -10.1107
  11   0.0000       0.149959         4.0806
  12   0.0000       0.238708         6.4956
  13   0.0000       0.238708         6.4956
  14   0.0000       0.320378         8.7179
  15   0.0000       0.711635        19.3646

MULLIKEN ATOMIC CHARGES
-----------------------
   0 C :    0.143748
   1 O :   -0.071892
   2 O :   -0.071856
Sum of atomic charges:   -0.0000000

LOEWDIN ATOMIC CHARGES
----------------------
   0 C :   -0.773849
   1 O :    0.386918
   2 O :    0.386931

  Mayer bond orders larger than 0.100000
B(  0-C ,  1-O ) :   2.0054 B(  0-C ,  2-O ) :   2.0055 B(  1-O ,  2-O ) :   1.1101

FINAL SINGLE POINT ENERGY      -184.017425350927

DIPOLE MOMENT
-------------

Method             : SCF
Type of density    : Electron Density
Multiplicity       :   1
Irrep              :   0
Energy             :  -184.0174253509269704 Eh
Relativity type    :
Basis              : AO
                                X                 Y                 Z
Electronic contribution:     -0.000027428       0.000000062      -0.000000006
Nuclear contribution   :      0.000000033      -0.000000000       0.000000000
                        -----------------------------------------
Total Dipole Moment    :     -0.000027395       0.000000061      -0.000000006
                        -----------------------------------------
Magnitude (a.u.)       :      0.000027395
Magnitude (Debye)      :      0.000069632

Rotational constants in cm-1:             0.000000             1.238753             1.238753
Rotational constants in MHz :             0.000000         37136.893918         37136.893918

                             ****ORCA TERMINATED NORMALLY****
TOTAL RUN TIME: 0 days 0 hours 0 minutes 1 seconds 709 msec
