                         Program Version 6.0.1  -  RELEASE   -
|  1> ! B3LYP def2-TZVP Opt NumFreq TightSCF
|  2> %maxcore 2000
|  3> * xyz 0 1
|  4> C     0.000000    0.000000    0.000000
|  5> H     0.000000    0.000000    1.089000
|  6> H     1.026719    0.000000   -0.363000
|  7> H    -0.513360   -0.889165   -0.363000
|  8> H    -0.513360    0.889165   -0.363000
|  9> *
| 10> %elprop
| 11>    Polar 1
| 12> end
| 13>
| 14>                          ****END OF INPUT****
 Total Charge           Charge          ....    0
 Multiplicity           Mult            ....    1
 Number of Electrons    NEL             ....   10
FINAL SINGLE POINT ENERGY       -40.501673763075
                    ***********************HURRAY********************

CARTESIAN COORDINATES (ANGSTROEM)
---------------------------------
  C      0.000003   -0.000000   -0.000001
  H     -0.000001    0.000000    1.089463
  H      1.027155   -0.000000   -0.363154
  H     -0.513579   -0.889542   -0.363154
  H     -0.513579    0.889542   -0.363154

 Multiplicity           Mult            ....    1
 Number of Electrons    NEL             ....   10
 Basis Dimension        Dim             ....   55

ORBITAL ENERGIES
----------------

  NO   OCC          E(Eh)            E(eV)
   0   2.0000     -10.150132      -276.1991
   1   2.0000      -0.693198       -18.8629
   2   2.0000      -0.392117       -10.6700
   3   2.0000      -0.392115       -10.6700
   4   2.0000      -0.392114       -10.6700
   5   0.0000       0.050742         1.3808
   6   0.0000       0.125838         3.4242
   7   0.0000       0.125843         3.4244
   8   0.0000       0.125846         3.4244
   9   0.0000       0.199322         5.4238

MULLIKEN ATOMIC CHARGES
-----------------------
   0 C :   -0.463220
   1 H :    0.115806
   2 H :    0.115798
   3 H :    0.115808
   4 H :    0.115808
Sum of atomic charges:   -0.0000000

LOEWDIN ATOMIC CHARGES
----------------------
   0 C :   -0.404210
   1 H :    0.101050
   2 H :    0.101051
   3 H :    0.101054
   4 H :    0.101054

  Mayer bond orders larger than 0.100000
B(  0-C ,  1-H ) :   0.9768 B(  0-C ,  2-H ) :   0.9768 B(  0-C ,  3-H ) :   0.9768
B(  0-C ,  4-H ) :   0.9768

FINAL SINGLE POINT ENERGY       -40.501674309518

DIPOLE MOMENT
-------------

Method             : SCF
Type of density    : Electron Density
Multiplicity       :   1
Irrep              :   0
Energy             :   -40.5016743095176039 Eh
Relativity type    :
Basis              : AO
                                X                 Y                 Z
Electronic contribution:      0.000032744      -0.000000081      -0.000019759
Nuclear contribution   :     -0.000012400       0.000000073       0.000001929
                        -----------------------------------------
Total Dipole Moment    :      0.000020344      -0.000000008      -0.000017830
                        -----------------------------------------
Magnitude (a.u.)       :      0.000027052
Magnitude (Debye)      :      0.000068760

VIBRATIONAL FREQUENCIES
-----------------------

Scaling factor for frequencies =  1.000000000  (already applied!)

     0:       0.00 cm**-1
     1:       0.00 cm**-1
     2:       0.00 cm**-1
     3:       0.00 cm**-1
     4:       0.00 cm**-1
     5:       0.00 cm**-1
     6:    1338.72 cm**-1
     7:    1340.25 cm**-1
     8:    1340.62 cm**-1
     9:    1554.67 cm**-1
    10:    1555.06 cm**-1
    11:    3028.37 cm**-1
    12:    3129.64 cm**-1
    13:    3131.71 cm**-1
    14:    3132.75 cm**-1

IR SPECTRUM
-----------

 Mode   freq       eps      Int      T**2         TX        TY        TZ
       cm**-1   L/(mol*cm) km/mol    a.u.
----------------------------------------------------------------------------
  6:   1338.72   0.002742   13.86  0.000639  (-0.000247 -0.025272  0.000698)
  7:   1340.25   0.002848   14.39  0.000663  ( 0.013832 -0.000707 -0.021711)
  8:   1340.62   0.002918   14.75  0.000679  (-0.022010 -0.000161 -0.013956)
  9:   1554.67   0.000003    0.01  0.000001  ( 0.000717 -0.000002  0.000281)
 10:   1555.06   0.000000    0.00  0.000000  (-0.000014 -0.000095 -0.000005)
 11:   3028.37   0.000002    0.01  0.000000  (-0.000293 -0.000002 -0.000345)
 12:   3129.64   0.004757   24.04  0.000474  (-0.008901 -0.000021  0.019877)
 13:   3131.71   0.004670   23.60  0.000465  (-0.019672  0.000487 -0.008839)
 14:   3132.75   0.004552   23.00  0.000453  ( 0.000441  0.021288  0.000222)

--------------------------
THERMOCHEMISTRY AT 298.15K
--------------------------

Temperature         ...   298.15 K
Pressure            ...     1.00 atm
Total Mass          ...    16.04 AMU
Quasi RRHO          ...     True
Cut-Off Frequency   ...     1.00 cm^-1

Throughout the following assumptions are being made:
  (1) The electronic state is orbitally nondegenerate
  (2) There are no thermally accessible electronically excited states
  (3) Hindered rotations indicated by low frequency modes are not
      treated as such but are treated as vibrations and this may
      cause some error
  (4) All equations used are the standard statistical mechanics
      equations for an ideal gas
  (5) All vibrations are strictly harmonic

freq.    1338.72  E(vib)   ...       0.01
freq.    1340.25  E(vib)   ...       0.01
freq.    1340.62  E(vib)   ...       0.01
freq.    1554.67  E(vib)   ...       0.00
freq.    1555.06  E(vib)   ...       0.00
freq.    3028.37  E(vib)   ...       0.00
freq.    3129.64  E(vib)   ...       0.00
freq.    3131.71  E(vib)   ...       0.00
freq.    3132.75  E(vib)   ...       0.00

------------
INNER ENERGY
------------

The inner energy is: U= E(el) + E(ZPE) + E(vib) + E(rot) + E(trans)
    E(el)   - is the total energy from the electronic structure calculation
              = E(kin-el) + E(nuc-el) + E(el-el) + E(nuc-nuc)
    E(ZPE)  - the the zero temperature vibrational energy from the frequency calculation
    E(vib)  - the the finite temperature correction to E(ZPE) due to population
              of excited vibrational states
    E(rot)  - is the rotational thermal energy
    E(trans)- is the translational thermal energy

Summary of contributions to the inner energy U:
Electronic energy                ...    -40.50167433 Eh
Zero point energy                ...      0.04454226 Eh      27.95 kcal/mol
Thermal vibrational correction   ...      0.00003638 Eh       0.02 kcal/mol
Thermal rotational correction    ...      0.00141627 Eh       0.89 kcal/mol
Thermal translational correction ...      0.00141627 Eh       0.89 kcal/mol
-----------------------------------------------------------------------
Total thermal energy                    -40.45426315 Eh

Summary of corrections to the electronic energy:
(perhaps to be used in another calculation)
Total thermal correction                  0.00286892 Eh       1.80 kcal/mol
Non-thermal (ZPE) correction              0.04454226 Eh      27.95 kcal/mol
-----------------------------------------------------------------------
Total correction                          0.04741118 Eh      29.75 kcal/mol

--------
ENTHALPY
--------

The enthalpy is H = U + kB*T
                kB is Boltzmann's constant
Total thermal energy              ...    -40.45426315 Eh
Thermal Enthalpy correction       ...      0.00094421 Eh       0.59 kcal/mol
-----------------------------------------------------------------------
Total Enthalpy                    ...    -40.45331894 Eh

Note: Rotational entropy computed according to Herzberg
Infrared and Raman Spectra, Chapter V,1, Van Nostrand Reinhold, 1945
Point Group:  Td, Symmetry Number:  12
Rotational constants in cm-1:     5.283760     5.283753     5.283753

Vibrational entropy computed according to the QRRHO of S. Grimme
Chem.Eur.J. 2012 18 9955 using a reference frequency of 100.0 cm-1

-------
ENTROPY
-------

The entropy contributions are T*S = T*(S(el)+S(vib)+S(rot)+S(trans))
     S(el)   - electronic entropy
     S(vib)  - vibrational entropy
     S(rot)  - rotational entropy
     S(trans)- translational entropy
The entropies will be listed as multiplied by the temperature to get
units of energy

Electronic entropy                ...      0.00000000 Eh      0.00 kcal/mol
Vibrational entropy               ...      0.00004184 Eh      0.03 kcal/mol
Rotational entropy                ...      0.00480703 Eh      3.02 kcal/mol
Translational entropy             ...      0.01627961 Eh     10.22 kcal/mol
-----------------------------------------------------------------------
Final entropy term                ...      0.02112848 Eh     13.26 kcal/mol

In case the symmetry of your molecule has not been determined correctly
or in case you have a reason to use a different symmetry number we print
out the resulting rotational entropy values for sn=1,12:

 non-linear molecules -----------------------------------
|  sn= 1 | S(rot)=       0.00715323 Eh      4.49 kcal/mol|
|  sn= 2 | S(rot)=       0.00649878 Eh      4.08 kcal/mol|
|  sn= 3 | S(rot)=       0.00611594 Eh      3.84 kcal/mol|
|  sn= 4 | S(rot)=       0.00584432 Eh      3.67 kcal/mol|
|  sn= 5 | S(rot)=       0.00563363 Eh      3.54 kcal/mol|
|  sn= 6 | S(rot)=       0.00546149 Eh      3.43 kcal/mol|
|  sn= 7 | S(rot)=       0.00531594 Eh      3.34 kcal/mol|
|  sn= 8 | S(rot)=       0.00518986 Eh      3.26 kcal/mol|
|  sn= 9 | S(rot)=       0.00507865 Eh      3.19 kcal/mol|
|  sn=10 | S(rot)=       0.00497918 Eh      3.12 kcal/mol|
|  sn=11 | S(rot)=       0.00488919 Eh      3.07 kcal/mol|
|  sn=12 | S(rot)=       0.00480703 Eh      3.02 kcal/mol|
 linear molecules ---------------------------------------
|  Dinfh | S(rot)=       0.00375409 Eh      2.36 kcal/mol|
|  Cinfv | S(rot)=       0.00440854 Eh      2.77 kcal/mol|
 --------------------------------------------------------

-------------------
GIBBS FREE ENERGY
-------------------

The Gibbs free energy is G = H - T*S

Total enthalpy                    ...    -40.45331894 Eh
Total entropy correction          ...     -0.02112848 Eh    -13.26 kcal/mol
-----------------------------------------------------------------------
Final Gibbs free energy         ...    -40.47444743 Eh

For completeness - the Gibbs free energy minus the electronic energy
G-E(el)                           ...      0.02722691 Eh     17.09 kcal/mol

                             ****ORCA TERMINATED NORMALLY****
TOTAL RUN TIME: 0 days 0 hours 1 minutes 59 seconds 275 msec
