                         Program Version 6.0.1  -  RELEASE   -
|  1> ! B3LYP def2-SVP TightSCF
|  2>
|  3> * xyz 0 1
|  4>  C      0.0828757117     0.0000000184     0.0000000008
|  5>  O      0.5886403722    -0.0000000071     0.0000000001
|  6>  O     -0.6425483223    -0.0000000116    -0.0000000010
|  7> *
|  8>
|  9>                          ****END OF INPUT****

CARTESIAN COORDINATES (ANGSTROEM)
---------------------------------
  C      0.082876    0.000000    0.000000
  O      0.588640   -0.000000    0.000000
  O     -0.642548   -0.000000   -0.000000

 Total Charge           Charge          ....    0
 Multiplicity           Mult            ....    1
 Number of Electrons    NEL             ....   22
 Basis Dimension        Dim             ....   42

ORBITAL ENERGIES
----------------

  NO   OCC          E(Eh)            E(eV)
   0   2.0000     -19.606277      -533.5139
   1   2.0000     -19.047337      -518.3044
   2   2.0000     -11.024834      -300.0010
   3   2.0000      -1.313790       -35.7500
   4   2.0000      -1.105471       -30.0814
   5   2.0000      -1.076359       -29.2892
   6   2.0000      -1.076359       -29.2892
   7   2.0000      -0.491475       -13.3737
   8   2.0000      -0.357676        -9.7329
   9   2.0000      -0.357676        -9.7329
  10   2.0000      -0.311593        -8.4789
  11   0.0000       0.145724         3.9653
  12   0.0000       0.217819         5.9272
  13   0.0000       0.217819         5.9272
  14   0.0000       0.314044         8.5456
  15   0.0000       0.751140        20.4396

MULLIKEN ATOMIC CHARGES
-----------------------
   0 C :   -0.434369
   1 O :    0.759561
   2 O :   -0.325192
Sum of atomic charges:    0.0000000

LOEWDIN ATOMIC CHARGES
----------------------
   0 C :   -0.761472
   1 O :    0.537950
   2 O :    0.223522

  Mayer bond orders larger than 0.100000
B(  0-C ,  1-O ) :   2.2431 B(  0-C ,  2-O ) :   1.8739 B(  1-O ,  2-O ) :   0.9565

FINAL SINGLE POINT ENERGY      -181.322193329202

DIPOLE MOMENT
-------------

Method             : SCF
Type of density    : Electron Density
Multiplicity       :   1
Irrep              :   0
Energy             :  -181.3221933292022072 Eh
Relativity type    :
Basis              : AO
                                X                 Y                 Z
Electronic contribution:      0.637066154       0.000000061       0.000000002
Nuclear contribution   :     -0.000886615      -0.000000000      -0.000000000
                        -----------------------------------------
Total Dipole Moment    :      0.636179539       0.000000061       0.000000002
                        -----------------------------------------
Magnitude (a.u.)       :      0.636179539
Magnitude (Debye)      :      1.617039879

Rotational constants in cm-1:             0.000000             1.378251             1.378251
Rotational constants in MHz :             0.000000         41318.918348         41318.918348

                             ****ORCA TERMINATED NORMALLY****
TOTAL RUN TIME: 0 days 0 hours 0 minutes 1 seconds 631 msec
