                         Program Version 6.0.1  -  RELEASE   -
|  1> ! B3LYP def2-SVP TightSCF Freq
|  2> %output
|  3>   PrintLevel 5
|  4> end
|  5> * xyz 0 1
|  6>    C         -0.0000019740          0.0000000202          0.0000000006
|  7>    O          0.6293711538         -0.0000000085          0.0000000006
|  8>    O         -0.6293693800         -0.0000000104         -0.0000000002
|  9> *
| 10> %elprop
| 11>  Polar 1
| 12> end
| 13>
| 14>                          ****END OF INPUT****

CARTESIAN COORDINATES (ANGSTROEM)
---------------------------------
  C     -0.000002    0.000000    0.000000
  O      0.629371   -0.000000    0.000000
  O     -0.629369   -0.000000   -0.000000

 Total Charge           Charge          ....    0
 Multiplicity           Mult            ....    1
 Number of Electrons    NEL             ....   22
 Basis Dimension        Dim             ....   42

ORBITAL ENERGIES
----------------

  NO   OCC          E(Eh)            E(eV)
   0   2.0000     -19.186660      -522.0956
   1   2.0000     -19.186485      -522.0908
   2   2.0000     -10.675137      -290.4852
   3   2.0000      -1.287447       -35.0332
   4   2.0000      -1.198831       -32.6219
   5   2.0000      -0.943988       -25.6872
   6   2.0000      -0.943988       -25.6872
   7   2.0000      -0.518244       -14.1021
   8   2.0000      -0.371928       -10.1207
   9   2.0000      -0.371928       -10.1207
  10   2.0000      -0.370185       -10.0733
  11   0.0000       0.151760         4.1296
  12   0.0000       0.230894         6.2829
  13   0.0000       0.230894         6.2829
  14   0.0000       0.317683         8.6446
  15   0.0000       0.722097        19.6493

------------------
MOLECULAR ORBITALS (RHF, ROHF)
------------------
                      0         1         2         3         4         5
                 -19.18666 -19.18649 -10.67514  -1.28745  -1.19883  -0.94399
                   2.00000   2.00000   2.00000   2.00000   2.00000   2.00000
                  --------  --------  --------  --------  --------  --------
  0C   1s         0.002256  0.000076 -0.972359  0.000008 -0.376531  0.000000
  0C   2s        -0.037784 -0.001273  0.075992  0.000017 -0.004869  0.000000
  0C   3s         0.004482  0.000151  0.005269 -0.000002  0.051389  0.000000
  0C   1pz       -0.000000  0.000000 -0.000000 -0.000000 -0.000000 -0.217203
  0C   1px        0.000287 -0.008528  0.000001 -0.776936 -0.000022  0.000000
  0C   1py        0.000000  0.000000 -0.000000 -0.000000 -0.000000 -0.466196
  0C   2pz        0.000000 -0.000000  0.000000 -0.000000 -0.000000 -0.050358
  0C   2px       -0.000633  0.018784  0.000000 -0.070189 -0.000002 -0.000000
  0C   2py        0.000000  0.000000  0.000000 -0.000000 -0.000000 -0.108087
  0C   1dz2      -0.003487 -0.000117 -0.006099 -0.000004  0.044378 -0.000000
  0C   1dxz      -0.000000  0.000000 -0.000000  0.000000  0.000000 -0.000000
  0C   1dyz       0.000000  0.000000  0.000000  0.000000 -0.000000  0.000000
  0C   1dx2y2     0.006040  0.000203  0.010563  0.000006 -0.076866  0.000000
  0C   1dxy       0.000000 -0.000000  0.000000  0.000000 -0.000000 -0.000001
  1O   1s        -0.673475 -0.720334 -0.026343 -0.234519  0.202729 -0.000000
  1O   2s         0.029182  0.042027 -0.047275 -0.186237  0.499120 -0.000000
  1O   3s         0.003739 -0.034448 -0.018811  0.211887  0.161681 -0.000000
  1O   1pz        0.000000 -0.000000  0.000000 -0.000000 -0.000000 -0.153605
  1O   1px       -0.008203 -0.009923  0.032584  0.256064 -0.163638 -0.000000
  1O   1py       -0.000000  0.000000 -0.000000 -0.000000 -0.000000 -0.329692
  1O   2pz       -0.000000 -0.000000 -0.000000 -0.000000 -0.000000  0.006509
  1O   2px       -0.007326  0.001560  0.009586 -0.121106 -0.041852  0.000000
  1O   2py        0.000000 -0.000000 -0.000000 -0.000000  0.000000  0.013971
  1O   1dz2      -0.001124 -0.002397  0.003968  0.028473  0.006575 -0.000000
  1O   1dxz      -0.000000  0.000000 -0.000000  0.000000  0.000000  0.017096
  1O   1dyz      -0.000000  0.000000 -0.000000  0.000000  0.000000 -0.000000
  1O   1dx2y2     0.001947  0.004151 -0.006874 -0.049316 -0.011388  0.000000
  1O   1dxy      -0.000000 -0.000000  0.000000  0.000000  0.000000  0.036694
  2O   1s        -0.720431  0.673371 -0.026344  0.234509  0.202744 -0.000000
  2O   2s         0.031944 -0.039967 -0.047274  0.186191  0.499133 -0.000000
  2O   3s         0.001412  0.034621 -0.018810 -0.211899  0.161671 -0.000000
  2O   1pz        0.000000  0.000000 -0.000000  0.000000 -0.000000 -0.153610
  2O   1px        0.008852 -0.009349 -0.032585  0.256051  0.163649  0.000000
  2O   1py        0.000000 -0.000000 -0.000000  0.000000 -0.000000 -0.329702
  2O   2pz       -0.000000  0.000000 -0.000000  0.000000  0.000000  0.006508
  2O   2px        0.007204  0.002049 -0.009585 -0.121111  0.041844 -0.000000
  2O   2py        0.000000  0.000000 -0.000000  0.000000  0.000000  0.013969
  2O   1dz2      -0.001283  0.002316  0.003969 -0.028473  0.006574 -0.000000
  2O   1dxz       0.000000  0.000000 -0.000000  0.000000 -0.000000 -0.017097
  2O   1dyz      -0.000000 -0.000000 -0.000000 -0.000000  0.000000 -0.000000
  2O   1dx2y2     0.002222 -0.004011 -0.006874  0.049317 -0.011387  0.000000
  2O   1dxy      -0.000000 -0.000000 -0.000000  0.000000 -0.000000 -0.036696
                      6         7         8         9        10        11
                  -0.94399  -0.51824  -0.37193  -0.37193  -0.37019   0.15176
                   2.00000   2.00000   2.00000   2.00000   2.00000   0.00000
                  --------  --------  --------  --------  --------  --------
  0C   1s         0.000000  0.000003 -0.000000 -0.000000 -0.276231 -0.060602
  0C   2s         0.000000 -0.000006 -0.000000 -0.000000 -0.624963 -0.700025
  0C   3s         0.000000  0.000000 -0.000000 -0.000000 -0.230410 -3.223211
  0C   1pz        0.466196  0.000000  0.000002  0.000002 -0.000000  0.000000
  0C   1px       -0.000000  0.372580  0.000000 -0.000000 -0.000003 -0.000001
  0C   1py       -0.217203  0.000000 -0.000002  0.000002  0.000000  0.000000
  0C   2pz        0.108087  0.000000  0.000002  0.000001 -0.000000  0.000000
  0C   2px        0.000000 -0.116186 -0.000000  0.000000  0.000000  0.000008
  0C   2py       -0.050358 -0.000000 -0.000001  0.000002  0.000000 -0.000000
  0C   1dz2      -0.000000  0.000002  0.000000  0.000000  0.074428 -0.045641
  0C   1dxz       0.000001 -0.000000  0.014992  0.011471 -0.000000  0.000000
  0C   1dyz      -0.000000 -0.000000  0.000000  0.000000  0.000000 -0.000000
  0C   1dx2y2     0.000000 -0.000003 -0.000000 -0.000000 -0.128914  0.079052
  0C   1dxy      -0.000000 -0.000000 -0.011471  0.014992  0.000000  0.000000
  1O   1s        -0.000000 -0.084021 -0.000000 -0.000000 -0.059069  0.088016
  1O   2s        -0.000000 -0.285870  0.000000  0.000000  0.110431  0.032625
  1O   3s        -0.000000 -0.357009  0.000000  0.000000  0.032946  1.901746
  1O   1pz        0.329692 -0.000000  0.437589  0.334832 -0.000000  0.000000
  1O   1px       -0.000000 -0.425835 -0.000000 -0.000000 -0.504787  0.033297
  1O   1py       -0.153605  0.000000 -0.334832  0.437589  0.000000  0.000000
  1O   2pz       -0.013971 -0.000000  0.269862  0.206491 -0.000000  0.000000
  1O   2px        0.000000 -0.076666 -0.000000 -0.000000 -0.381995 -0.270302
  1O   2py        0.006509  0.000000 -0.206491  0.269862  0.000000  0.000000
  1O   1dz2       0.000000 -0.023465 -0.000000  0.000000  0.000893 -0.011362
  1O   1dxz      -0.036694  0.000000 -0.042943 -0.032859  0.000000  0.000000
  1O   1dyz       0.000000  0.000000  0.000000  0.000000 -0.000000  0.000000
  1O   1dx2y2     0.000000  0.040643  0.000000 -0.000000 -0.001546  0.019679
  1O   1dxy       0.017096 -0.000000  0.032859 -0.042943 -0.000000 -0.000000
  2O   1s         0.000000  0.084018 -0.000000 -0.000000 -0.059068  0.088017
  2O   2s        -0.000000  0.285876  0.000000  0.000000  0.110433  0.032625
  2O   3s        -0.000000  0.357006  0.000000  0.000000  0.032949  1.901773
  2O   1pz        0.329702  0.000000 -0.437585 -0.334829  0.000000 -0.000000
  2O   1px        0.000000 -0.425836  0.000000  0.000000  0.504789 -0.033297
  2O   1py       -0.153610 -0.000000  0.334829 -0.437585 -0.000000  0.000000
  2O   2pz       -0.013969  0.000000 -0.269859 -0.206489  0.000000 -0.000000
  2O   2px       -0.000000 -0.076667  0.000000  0.000000  0.381996  0.270304
  2O   2py        0.006508 -0.000000  0.206489 -0.269859 -0.000000  0.000000
  2O   1dz2      -0.000000  0.023465  0.000000 -0.000000  0.000893 -0.011361
  2O   1dxz       0.036696  0.000000 -0.042943 -0.032859  0.000000 -0.000000
  2O   1dyz       0.000000 -0.000000 -0.000000 -0.000000 -0.000000  0.000000
  2O   1dx2y2     0.000000 -0.040642 -0.000000  0.000000 -0.001547  0.019679
  2O   1dxy      -0.017097 -0.000000  0.032859 -0.042943 -0.000000  0.000000
                     12        13        14        15        16        17
                   0.23089   0.23089   0.31768   0.72210   0.78164   0.78164
                   0.00000   0.00000   0.00000   0.00000   0.00000   0.00000
                  --------  --------  --------  --------  --------  --------
  0C   1s        -0.000000  0.000000  0.000001  0.242993  0.000000 -0.000000
  0C   2s        -0.000000  0.000000  0.000007 -4.610044 -0.000001  0.000002
  0C   3s         0.000000 -0.000000  0.000015 -1.691655 -0.000000  0.000001
  0C   1pz        0.194959  0.136332  0.000000  0.000000 -0.970655 -0.613729
  0C   1px       -0.000000 -0.000000  0.099094  0.000007  0.000000 -0.000000
  0C   1py        0.136332 -0.194959 -0.000000  0.000001 -0.613729  0.970655
  0C   2pz       -1.393659 -0.974563 -0.000000  0.000000 -1.249094 -0.789782
  0C   2px       -0.000000 -0.000000  3.279421 -0.000012  0.000000  0.000000
  0C   2py       -0.974563  1.393659  0.000000  0.000001 -0.789782  1.249094
  0C   1dz2       0.000000 -0.000000  0.000000  0.040559  0.000000 -0.000000
  0C   1dxz       0.000001  0.000000  0.000000  0.000000  0.000018  0.000011
  0C   1dyz      -0.000000 -0.000000  0.000000 -0.000000 -0.000000 -0.000000
  0C   1dx2y2    -0.000000  0.000000 -0.000000 -0.070250 -0.000000  0.000000
  0C   1dxy       0.000000 -0.000001  0.000000 -0.000000  0.000011 -0.000018
  1O   1s        -0.000000  0.000000 -0.063417 -0.018095 -0.000000  0.000000
  1O   2s         0.000000 -0.000000  0.002099  0.174851  0.000000 -0.000000
  1O   3s        -0.000000  0.000000 -2.896058  2.591612  0.000001 -0.000001
  1O   1pz        0.102583  0.071735  0.000000 -0.000000  0.173288  0.109567
  1O   1px       -0.000000  0.000000 -0.153427  0.312913  0.000000 -0.000000
  1O   1py        0.071735 -0.102583 -0.000000 -0.000000  0.109567 -0.173288
  1O   2pz        0.367887  0.257257  0.000000 -0.000000  1.151106  0.727826
  1O   2px       -0.000000  0.000000 -0.005205 -1.708771 -0.000000  0.000001
  1O   2py        0.257257 -0.367887 -0.000000 -0.000000  0.727826 -1.151106
  1O   1dz2       0.000000 -0.000000  0.002555 -0.025460 -0.000000  0.000000
  1O   1dxz      -0.024324 -0.017009  0.000000 -0.000000  0.064712  0.040916
  1O   1dyz       0.000000  0.000000  0.000000 -0.000000 -0.000000 -0.000000
  1O   1dx2y2    -0.000000  0.000000 -0.004426  0.044099  0.000000 -0.000000
  1O   1dxy      -0.017009  0.024324  0.000000 -0.000000  0.040916 -0.064712
  2O   1s        -0.000000  0.000000  0.063416 -0.018096 -0.000000  0.000000
  2O   2s         0.000000 -0.000000 -0.002100  0.174859  0.000000 -0.000000
  2O   3s        -0.000000  0.000000  2.896033  2.591666  0.000001 -0.000001
  2O   1pz        0.102583  0.071734 -0.000000 -0.000000  0.173257  0.109548
  2O   1px        0.000000 -0.000000 -0.153430 -0.312911 -0.000000  0.000000
  2O   1py        0.071734 -0.102583  0.000000 -0.000000  0.109548 -0.173257
  2O   2pz        0.367885  0.257256 -0.000000 -0.000000  1.151217  0.727896
  2O   2px        0.000000 -0.000000 -0.005219  1.708807  0.000000 -0.000001
  2O   2py        0.257256 -0.367885  0.000000 -0.000000  0.727896 -1.151217
  2O   1dz2       0.000000 -0.000000 -0.002555 -0.025461 -0.000000  0.000000
  2O   1dxz       0.024325  0.017010  0.000000  0.000000 -0.064708 -0.040914
  2O   1dyz       0.000000  0.000000 -0.000000 -0.000000 -0.000000 -0.000000
  2O   1dx2y2    -0.000000  0.000000  0.004426  0.044100  0.000000 -0.000000
  2O   1dxy       0.017010 -0.024325  0.000000  0.000000 -0.040914  0.064708
                     18        19        20        21        22        23
                   0.80996   0.80996   0.83665   1.22250   1.32622   1.32622
                   0.00000   0.00000   0.00000   0.00000   0.00000   0.00000
                  --------  --------  --------  --------  --------  --------
  0C   1s        -0.000000 -0.000000  0.000001 -0.042545  0.000000 -0.000000
  0C   2s         0.000000  0.000000 -0.000012  0.333343 -0.000000  0.000000
  0C   3s         0.000000 -0.000000 -0.000002  3.216888 -0.000000  0.000001
  0C   1pz        0.000010  0.000060  0.000000  0.000000 -0.255532 -0.054592
  0C   1px        0.000000 -0.000000 -0.570696  0.000006 -0.000000 -0.000000
  0C   1py        0.000060 -0.000010  0.000000 -0.000000 -0.054592  0.255532
  0C   2pz        0.000012  0.000069  0.000000 -0.000000  1.568337  0.335061
  0C   2px       -0.000000  0.000000  0.916383 -0.000008  0.000000  0.000000
  0C   2py        0.000069 -0.000012  0.000000  0.000000  0.335061 -1.568337
  0C   1dz2       0.000000  0.000000  0.000002  0.251079  0.000000 -0.000000
  0C   1dxz       0.076049  0.437373  0.000000  0.000000 -0.000001 -0.000000
  0C   1dyz       0.000000  0.000000 -0.000000  0.000000 -0.000000 -0.000000
  0C   1dx2y2    -0.000000  0.000000 -0.000003 -0.434882  0.000000 -0.000000
  0C   1dxy       0.437373 -0.076049  0.000000 -0.000000 -0.000000  0.000001
  1O   1s        -0.000000  0.000000 -0.008170  0.217054  0.000000  0.000000
  1O   2s         0.000000 -0.000000 -0.063342  2.063374 -0.000000  0.000000
  1O   3s        -0.000002  0.000000  2.465034 -3.376275  0.000000 -0.000001
  1O   1pz        0.061264  0.352341  0.000000 -0.000000  0.773659  0.165285
  1O   1px       -0.000000  0.000000  0.124190  0.103246 -0.000000  0.000000
  1O   1py        0.352341 -0.061264  0.000000  0.000000  0.165285 -0.773659
  1O   2pz       -0.195332 -1.123393 -0.000000  0.000000 -1.251515 -0.267375
  1O   2px        0.000002 -0.000000 -2.628495  0.188164 -0.000000  0.000000
  1O   2py       -1.123393  0.195332 -0.000001 -0.000000 -0.267375  1.251515
  1O   1dz2       0.000000 -0.000000 -0.007505  0.013197  0.000000 -0.000000
  1O   1dxz       0.010214  0.058740  0.000000 -0.000000  0.103800  0.022176
  1O   1dyz      -0.000000 -0.000000  0.000000  0.000000 -0.000000 -0.000000
  1O   1dx2y2    -0.000000  0.000000  0.013000 -0.022858  0.000000 -0.000000
  1O   1dxy       0.058740 -0.010214  0.000000  0.000000  0.022176 -0.103800
  2O   1s         0.000000 -0.000000  0.008171  0.217055  0.000000  0.000000
  2O   2s        -0.000000 -0.000000  0.063350  2.063390 -0.000000  0.000000
  2O   3s         0.000002 -0.000000 -2.465029 -3.376314  0.000000 -0.000001
  2O   1pz       -0.061267 -0.352361 -0.000000 -0.000000  0.773656  0.165285
  2O   1px       -0.000000  0.000000  0.124191 -0.103251  0.000000 -0.000000
  2O   1py       -0.352361  0.061267 -0.000000  0.000000  0.165285 -0.773656
  2O   2pz        0.195308  1.123259  0.000000  0.000000 -1.251517 -0.267375
  2O   2px        0.000002 -0.000000 -2.628488 -0.188163  0.000000 -0.000000
  2O   2py        1.123259 -0.195308  0.000001 -0.000000 -0.267375  1.251517
  2O   1dz2      -0.000000  0.000000  0.007505  0.013198  0.000000 -0.000000
  2O   1dxz       0.010215  0.058749  0.000000  0.000000 -0.103801 -0.022176
  2O   1dyz       0.000000  0.000000 -0.000000  0.000000 -0.000000 -0.000000
  2O   1dx2y2     0.000000 -0.000000 -0.012999 -0.022859  0.000000 -0.000000
  2O   1dxy       0.058749 -0.010215  0.000000 -0.000000 -0.022176  0.103801
                     24        25        26        27        28        29
                   1.37173   1.37173   1.59293   1.97935   2.55872   2.55873
                   0.00000   0.00000   0.00000   0.00000   0.00000   0.00000
                  --------  --------  --------  --------  --------  --------
  0C   1s        -0.000000  0.000000  0.000001 -0.063241  0.000000 -0.000000
  0C   2s         0.000000 -0.000000 -0.000005  6.277095 -0.000000 -0.000000
  0C   3s         0.000000 -0.000000 -0.000009  1.673715  0.000000  0.000000
  0C   1pz        0.000000  0.000000 -0.000000 -0.000000  0.000000  0.000000
  0C   1px       -0.000000 -0.000000 -0.104947  0.000006  0.000000  0.000000
  0C   1py        0.000000 -0.000000  0.000000 -0.000000  0.000000 -0.000000
  0C   2pz       -0.000000 -0.000000  0.000000 -0.000000  0.000000 -0.000000
  0C   2px        0.000000  0.000000 -3.333169  0.000008  0.000000  0.000000
  0C   2py       -0.000000  0.000000 -0.000000  0.000000  0.000000 -0.000000
  0C   1dz2      -0.000000 -0.740683  0.000000  0.351902 -0.000003 -0.000000
  0C   1dxz       0.000000  0.000000  0.000000 -0.000000 -0.000000  0.000000
  0C   1dyz      -0.855272  0.000000  0.000000  0.000000 -0.000000  0.000003
  0C   1dx2y2    -0.000000 -0.427634 -0.000001 -0.609512 -0.000002  0.000000
  0C   1dxy       0.000000 -0.000000 -0.000000 -0.000000  0.000000  0.000000
  1O   1s         0.000000 -0.000000 -0.214260 -0.155636  0.000000  0.000000
  1O   2s         0.000000 -0.000000 -1.560851 -0.326826  0.000000  0.000000
  1O   3s        -0.000000  0.000000  5.225347 -3.326493 -0.000000 -0.000000
  1O   1pz       -0.000000 -0.000000  0.000000 -0.000000  0.000000 -0.000000
  1O   1px        0.000000 -0.000000 -0.382060  0.729444 -0.000000  0.000000
  1O   1py       -0.000000  0.000000  0.000000  0.000000 -0.000000 -0.000000
  1O   2pz        0.000000  0.000000 -0.000000  0.000000  0.000000  0.000000
  1O   2px        0.000000 -0.000000 -0.084204  1.265007 -0.000000  0.000000
  1O   2py        0.000000 -0.000000  0.000000 -0.000000  0.000000 -0.000000
  1O   1dz2      -0.000000 -0.121975  0.012997  0.023958 -0.622910  0.000000
  1O   1dxz      -0.000000 -0.000000  0.000000 -0.000000  0.000000 -0.000000
  1O   1dyz      -0.140841  0.000000  0.000000 -0.000000  0.000000  0.719274
  1O   1dx2y2    -0.000000 -0.070422 -0.022512 -0.041496 -0.359637  0.000000
  1O   1dxy      -0.000000  0.000000 -0.000000  0.000000 -0.000000 -0.000000
  2O   1s         0.000000 -0.000000  0.214258 -0.155637  0.000000 -0.000000
  2O   2s         0.000000 -0.000000  1.560840 -0.326831  0.000000 -0.000000
  2O   3s        -0.000000  0.000000 -5.225325 -3.326554  0.000000  0.000000
  2O   1pz       -0.000000 -0.000000  0.000000 -0.000000 -0.000000  0.000000
  2O   1px       -0.000000  0.000000 -0.382065 -0.729443  0.000000  0.000000
  2O   1py       -0.000000  0.000000 -0.000000  0.000000  0.000000  0.000000
  2O   2pz        0.000000  0.000000 -0.000000  0.000000 -0.000000 -0.000000
  2O   2px       -0.000000  0.000000 -0.084183 -1.265047  0.000000  0.000000
  2O   2py        0.000000 -0.000000 -0.000000 -0.000000 -0.000000  0.000000
  2O   1dz2      -0.000000 -0.121975 -0.012997  0.023961  0.622909 -0.000000
  2O   1dxz       0.000000  0.000000  0.000000  0.000000 -0.000000 -0.000000
  2O   1dyz      -0.140841  0.000000 -0.000000 -0.000000 -0.000000 -0.719273
  2O   1dx2y2    -0.000000 -0.070422  0.022511 -0.041502  0.359637 -0.000000
  2O   1dxy       0.000000 -0.000000 -0.000000 -0.000000 -0.000000  0.000000
                     30        31        32        33        34        35
                   2.90473   2.90473   3.25722   3.29543   3.52741   3.52741
                   0.00000   0.00000   0.00000   0.00000   0.00000   0.00000
                  --------  --------  --------  --------  --------  --------
  0C   1s        -0.000000  0.000000  0.433217 -0.000079 -0.000000 -0.000000
  0C   2s         0.000000 -0.000000  8.557143 -0.001404 -0.000000  0.000000
  0C   3s        -0.000000  0.000000  1.240549 -0.000196 -0.000000 -0.000000
  0C   1pz        0.000000  0.000000 -0.000000 -0.000000 -0.000000 -0.000000
  0C   1px       -0.000000  0.000000 -0.000024 -0.093728  0.000000 -0.000000
  0C   1py        0.000000 -0.000000 -0.000000 -0.000000  0.000000 -0.000000
  0C   2pz       -0.000001 -0.000001  0.000000 -0.000000 -0.000000 -0.000000
  0C   2px        0.000000 -0.000000  0.000028  0.122491  0.000000  0.000000
  0C   2py       -0.000001  0.000001  0.000000  0.000000  0.000000 -0.000000
  0C   1dz2      -0.000000  0.000000 -0.616977  0.000106 -0.877764  0.000000
  0C   1dxz      -0.155639 -0.395590  0.000000  0.000000  0.000000  0.000000
  0C   1dyz      -0.000000 -0.000000  0.000000  0.000000 -0.000000 -1.013551
  0C   1dx2y2     0.000000 -0.000000  1.068635 -0.000184 -0.506777  0.000000
  0C   1dxy      -0.395590  0.155639  0.000000  0.000000 -0.000000  0.000000
  1O   1s         0.000000 -0.000000 -0.004342  0.018717  0.000000 -0.000000
  1O   2s         0.000000 -0.000000 -2.236939  0.487668  0.000000 -0.000000
  1O   3s        -0.000000  0.000000 -3.003702 -2.350050 -0.000000 -0.000000
  1O   1pz        0.130261  0.331086 -0.000000 -0.000000 -0.000000 -0.000000
  1O   1px       -0.000000  0.000000  0.662797  0.028260 -0.000000  0.000000
  1O   1py        0.331086 -0.130261 -0.000000 -0.000000  0.000000 -0.000000
  1O   2pz       -0.078573 -0.199711 -0.000000  0.000000  0.000000  0.000000
  1O   2px        0.000000 -0.000000  1.426220  1.465573 -0.000000  0.000000
  1O   2py       -0.199711  0.078573 -0.000000 -0.000000 -0.000000  0.000000
  1O   1dz2      -0.000000  0.000000  0.371224  0.489228  0.789463 -0.000000
  1O   1dxz       0.240647  0.611656 -0.000000 -0.000000 -0.000000 -0.000000
  1O   1dyz       0.000000  0.000000 -0.000000  0.000000  0.000000  0.911594
  1O   1dx2y2    -0.000000  0.000000 -0.642980 -0.847368  0.455797 -0.000000
  1O   1dxy       0.611656 -0.240647  0.000000  0.000000  0.000000 -0.000000
  2O   1s        -0.000000  0.000000 -0.004350 -0.018716  0.000000 -0.000000
  2O   2s        -0.000000  0.000000 -2.237144 -0.486912  0.000000 -0.000000
  2O   3s         0.000000 -0.000000 -3.002928  2.351016  0.000000 -0.000000
  2O   1pz       -0.130262 -0.331089 -0.000000  0.000000 -0.000000 -0.000000
  2O   1px       -0.000000  0.000000 -0.662786  0.028479  0.000000 -0.000000
  2O   1py       -0.331089  0.130262 -0.000000  0.000000  0.000000 -0.000000
  2O   2pz        0.078574  0.199714 -0.000000  0.000000  0.000000  0.000000
  2O   2px        0.000000 -0.000000 -1.425734  1.466036  0.000000 -0.000000
  2O   2py        0.199714 -0.078574 -0.000000  0.000000 -0.000000  0.000000
  2O   1dz2       0.000000 -0.000000  0.371059 -0.489354  0.789468 -0.000000
  2O   1dxz       0.240647  0.611657 -0.000000  0.000000 -0.000000  0.000000
  2O   1dyz      -0.000000 -0.000000 -0.000000 -0.000000  0.000000  0.911600
  2O   1dx2y2     0.000000 -0.000000 -0.642694  0.847586  0.455800 -0.000000
  2O   1dxy       0.611657 -0.240647 -0.000000  0.000000 -0.000000 -0.000000
                     36        37        38        39        40        41
                   4.15923   4.15923   4.42949   4.42949   6.44854   6.85467
                   0.00000   0.00000   0.00000   0.00000   0.00000   0.00000
                  --------  --------  --------  --------  --------  --------
  0C   1s        -0.000000 -0.000000  0.000000 -0.000000  0.613185 -0.000031
  0C   2s         0.000000  0.000000 -0.000000  0.000000-19.716011  0.001409
  0C   3s         0.000000 -0.000000  0.000000 -0.000000 -0.253782  0.000034
  0C   1pz       -0.000008 -0.000013 -2.203698 -0.909537  0.000000 -0.000000
  0C   1px        0.000000 -0.000000  0.000000 -0.000000 -0.000246 -5.432195
  0C   1py       -0.000013  0.000008 -0.909537  2.203698  0.000000 -0.000000
  0C   2pz       -0.000001 -0.000002 -0.676912 -0.279383 -0.000000 -0.000000
  0C   2px        0.000000 -0.000000  0.000000 -0.000000  0.000001 -0.058963
  0C   2py       -0.000002  0.000001 -0.279383  0.676912 -0.000000  0.000000
  0C   1dz2       0.000000  0.000000  0.000000 -0.000000  3.135420 -0.000202
  0C   1dxz       1.393213  2.303458  0.000008  0.000003 -0.000000  0.000000
  0C   1dyz       0.000000  0.000000  0.000000  0.000000 -0.000000  0.000000
  0C   1dx2y2    -0.000000  0.000000 -0.000000  0.000000 -5.430707  0.000349
  0C   1dxy       2.303458 -1.393213  0.000003 -0.000008 -0.000000  0.000000
  1O   1s        -0.000000  0.000000 -0.000000  0.000000 -0.120344  0.183825
  1O   2s         0.000000 -0.000000  0.000000 -0.000000  9.292501  3.531123
  1O   3s        -0.000000  0.000000 -0.000000  0.000000  3.258753  2.178280
  1O   1pz       -0.765985 -1.266435  0.448398  0.185068  0.000000 -0.000000
  1O   1px       -0.000000  0.000000  0.000000 -0.000000 -1.782710 -1.710649
  1O   1py       -1.266435  0.765985  0.185068 -0.448398  0.000000  0.000000
  1O   2pz       -0.327406 -0.541315  0.934475  0.385688  0.000000 -0.000000
  1O   2px        0.000000 -0.000000  0.000000 -0.000000 -1.755719 -1.228506
  1O   2py       -0.541315  0.327406  0.385688 -0.934475  0.000000  0.000000
  1O   1dz2       0.000000 -0.000000  0.000000 -0.000000  0.265113 -0.278562
  1O   1dxz       0.506743  0.837819 -1.055750 -0.435742 -0.000000  0.000000
  1O   1dyz      -0.000000 -0.000000 -0.000000 -0.000000  0.000000  0.000000
  1O   1dx2y2     0.000000 -0.000000 -0.000000  0.000000 -0.459189  0.482484
  1O   1dxy       0.837819 -0.506743 -0.435742  1.055750 -0.000000 -0.000000
  2O   1s         0.000000 -0.000000 -0.000000  0.000000 -0.120371 -0.183806
  2O   2s        -0.000000  0.000000  0.000000 -0.000000  9.292210 -3.532393
  2O   3s         0.000000 -0.000000 -0.000000  0.000000  3.258595 -2.178796
  2O   1pz        0.765993  1.266448  0.448417  0.185076  0.000000  0.000000
  2O   1px       -0.000000  0.000000 -0.000000  0.000000  1.782479 -1.710890
  2O   1py        1.266448 -0.765993  0.185076 -0.448417  0.000000 -0.000000
  2O   2pz        0.327410  0.541321  0.934488  0.385693  0.000000 -0.000000
  2O   2px        0.000000 -0.000000 -0.000000  0.000000  1.755599 -1.228764
  2O   2py        0.541321 -0.327410  0.385693 -0.934488  0.000000 -0.000000
  2O   1dz2      -0.000000  0.000000  0.000000 -0.000000  0.265147  0.278521
  2O   1dxz       0.506735  0.837806  1.055764  0.435748 -0.000000 -0.000000
  2O   1dyz       0.000000  0.000000 -0.000000 -0.000000  0.000000 -0.000000
  2O   1dx2y2    -0.000000  0.000000 -0.000000  0.000000 -0.459249 -0.482412
  2O   1dxy       0.837806 -0.506735  0.435748 -1.055764  0.000000 -0.000000

MULLIKEN ATOMIC CHARGES
-----------------------
   0 C :    0.138024
   1 O :   -0.069026
   2 O :   -0.068998
Sum of atomic charges:   -0.0000000

LOEWDIN ATOMIC CHARGES
----------------------
   0 C :   -0.804567
   1 O :    0.402279
   2 O :    0.402288

  Mayer bond orders larger than 0.100000
B(  0-C ,  1-O ) :   1.8994 B(  0-C ,  2-O ) :   1.8994 B(  1-O ,  2-O ) :   1.2556

FINAL SINGLE POINT ENERGY      -183.273720128888

DIPOLE MOMENT
-------------

Method             : SCF
Type of density    : Electron Density
Multiplicity       :   1
Irrep              :   0
Energy             :  -183.2737201288881579 Eh
Relativity type    :
Basis              : AO
                                X                 Y                 Z
Electronic contribution:     -0.000018798       0.000000065       0.000000003
Nuclear contribution   :      0.000000023      -0.000000000      -0.000000000
                        -----------------------------------------
Total Dipole Moment    :     -0.000018775       0.000000065       0.000000003
                        -----------------------------------------
Magnitude (a.u.)       :      0.000018775
Magnitude (Debye)      :      0.000047723

VIBRATIONAL FREQUENCIES
-----------------------

Scaling factor for frequencies =  1.000000000  (already applied!)

     0:       0.00 cm**-1
     1:       0.00 cm**-1
     2:       0.00 cm**-1
     3:       0.00 cm**-1
     4:       0.00 cm**-1
     5:   -6193.40 cm**-1  ***imaginary mode***
     6:   -6193.40 cm**-1  ***imaginary mode***
     7:    7058.42 cm**-1
     8:   13502.64 cm**-1

IR SPECTRUM
-----------

 Mode   freq       eps      Int      T**2         TX        TY        TZ
       cm**-1   L/(mol*cm) km/mol    a.u.
----------------------------------------------------------------------------
  7:   7058.42   0.000000    0.00  0.000000  ( 0.000001 -0.000000  0.000000)
  8:  13502.64   0.266578  1347.18  0.006161  ( 0.078492  0.000000 -0.000000)

--------------------------
THERMOCHEMISTRY AT 298.15K
--------------------------

Temperature         ...   298.15 K
Pressure            ...     1.00 atm
Total Mass          ...    44.01 AMU
Quasi RRHO          ...     True
Cut-Off Frequency   ...     1.00 cm^-1
The molecule is recognized as being linear

Throughout the following assumptions are being made:
  (1) The electronic state is orbitally nondegenerate
  (2) There are no thermally accessible electronically excited states
  (3) Hindered rotations indicated by low frequency modes are not
      treated as such but are treated as vibrations and this may
      cause some error
  (4) All equations used are the standard statistical mechanics
      equations for an ideal gas
  (5) All vibrations are strictly harmonic

freq.    7058.42  E(vib)   ...       0.00
freq.   13502.64  E(vib)   ...       0.00

------------
INNER ENERGY
------------

The inner energy is: U= E(el) + E(ZPE) + E(vib) + E(rot) + E(trans)
    E(el)   - is the total energy from the electronic structure calculation
              = E(kin-el) + E(nuc-el) + E(el-el) + E(nuc-nuc)
    E(ZPE)  - the the zero temperature vibrational energy from the frequency calculation
    E(vib)  - the the finite temperature correction to E(ZPE) due to population
              of excited vibrational states
    E(rot)  - is the rotational thermal energy
    E(trans)- is the translational thermal energy

Summary of contributions to the inner energy U:
Electronic energy                ...   -183.27372013 Eh
Zero point energy                ...      0.04684156 Eh      29.39 kcal/mol
Thermal vibrational correction   ...      0.00000000 Eh       0.00 kcal/mol
Thermal rotational correction    ...      0.00094418 Eh       0.59 kcal/mol
Thermal translational correction ...      0.00141627 Eh       0.89 kcal/mol
-----------------------------------------------------------------------
Total thermal energy                   -183.22451812 Eh

Summary of corrections to the electronic energy:
(perhaps to be used in another calculation)
Total thermal correction                  0.00236045 Eh       1.48 kcal/mol
Non-thermal (ZPE) correction              0.04684156 Eh      29.39 kcal/mol
-----------------------------------------------------------------------
Total correction                          0.04920201 Eh      30.87 kcal/mol

--------
ENTHALPY
--------

The enthalpy is H = U + kB*T
                kB is Boltzmann's constant
Total thermal energy              ...   -183.22451812 Eh
Thermal Enthalpy correction       ...      0.00094421 Eh       0.59 kcal/mol
-----------------------------------------------------------------------
Total Enthalpy                    ...   -183.22357391 Eh

Note: Rotational entropy computed according to Herzberg
Infrared and Raman Spectra, Chapter V,1, Van Nostrand Reinhold, 1945
Point Group:  D(inf)h, Symmetry Number:   1
Rotational constants in cm-1:     0.000000     1.330031     1.330031

Vibrational entropy computed according to the QRRHO of S. Grimme
Chem.Eur.J. 2012 18 9955 using a reference frequency of 100.0 cm-1

-------
ENTROPY
-------

The entropy contributions are T*S = T*(S(el)+S(vib)+S(rot)+S(trans))
     S(el)   - electronic entropy
     S(vib)  - vibrational entropy
     S(rot)  - rotational entropy
     S(trans)- translational entropy
The entropies will be listed as multiplied by the temperature to get
units of energy

Electronic entropy                ...      0.00000000 Eh      0.00 kcal/mol
Vibrational entropy               ...     -0.00000000 Eh     -0.00 kcal/mol
Rotational entropy                ...      0.00571098 Eh      3.58 kcal/mol
Translational entropy             ...      0.01770880 Eh     11.11 kcal/mol
-----------------------------------------------------------------------
Final entropy term                ...      0.02341978 Eh     14.70 kcal/mol

-------------------
GIBBS FREE ENERGY
-------------------

The Gibbs free energy is G = H - T*S

Total enthalpy                    ...   -183.22357391 Eh
Total entropy correction          ...     -0.02341978 Eh    -14.70 kcal/mol
-----------------------------------------------------------------------
Final Gibbs free energy         ...   -183.24699369 Eh

For completeness - the Gibbs free energy minus the electronic energy
G-E(el)                           ...      0.02672644 Eh     16.77 kcal/mol

                             ****ORCA TERMINATED NORMALLY****
TOTAL RUN TIME: 0 days 0 hours 0 minutes 14 seconds 873 msec
