                         Program Version 6.0.1  -  RELEASE   -
|  1> ! B3LYP def2-SVP TightSCF Freq ENGRAD
|  2> * xyz 0 1
|  3>    C         -0.0000014014          0.0000000192          0.0000000015
|  4>    O          0.6155937128         -0.0000000096         -0.0000000008
|  5>    O         -0.6155923114         -0.0000000096         -0.0000000008
|  6> *
|  7> %elprop
|  8>  Polar 1
|  9> end
| 10>
| 11>                          ****END OF INPUT****

CARTESIAN COORDINATES (ANGSTROEM)
---------------------------------
  C     -0.000001    0.000000    0.000000
  O      0.615594   -0.000000   -0.000000
  O     -0.615592   -0.000000   -0.000000

 Total Charge           Charge          ....    0
 Multiplicity           Mult            ....    1
 Number of Electrons    NEL             ....   22
 Basis Dimension        Dim             ....   42

ORBITAL ENERGIES
----------------

  NO   OCC          E(Eh)            E(eV)
   0   2.0000     -19.203537      -522.5548
   1   2.0000     -19.203232      -522.5465
   2   2.0000     -10.739995      -292.2501
   3   2.0000      -1.279535       -34.8179
   4   2.0000      -1.191786       -32.4301
   5   2.0000      -0.970981       -26.4217
   6   2.0000      -0.970981       -26.4217
   7   2.0000      -0.519550       -14.1377
   8   2.0000      -0.372219       -10.1286
   9   2.0000      -0.372219       -10.1286
  10   2.0000      -0.356236        -9.6937
  11   0.0000       0.152682         4.1547
  12   0.0000       0.226104         6.1526
  13   0.0000       0.226104         6.1526
  14   0.0000       0.315956         8.5976
  15   0.0000       0.729113        19.8402

MULLIKEN ATOMIC CHARGES
-----------------------
   0 C :    0.133685
   1 O :   -0.066853
   2 O :   -0.066831
Sum of atomic charges:   -0.0000000

LOEWDIN ATOMIC CHARGES
----------------------
   0 C :   -0.821542
   1 O :    0.410768
   2 O :    0.410775

  Mayer bond orders larger than 0.100000
B(  0-C ,  1-O ) :   1.8263 B(  0-C ,  2-O ) :   1.8264 B(  1-O ,  2-O ) :   1.3538

FINAL SINGLE POINT ENERGY      -182.770526125662

DIPOLE MOMENT
-------------

Method             : SCF
Type of density    : Electron Density
Multiplicity       :   1
Irrep              :   0
Energy             :  -182.7705261256615756 Eh
Relativity type    :
Basis              : AO
                                X                 Y                 Z
Electronic contribution:     -0.000013630       0.000000062       0.000000006
Nuclear contribution   :      0.000000017      -0.000000000      -0.000000000
                        -----------------------------------------
Total Dipole Moment    :     -0.000013613       0.000000062       0.000000006
                        -----------------------------------------
Magnitude (a.u.)       :      0.000013613
Magnitude (Debye)      :      0.000034602

VIBRATIONAL FREQUENCIES
-----------------------

Scaling factor for frequencies =  1.000000000  (already applied!)

     0:       0.00 cm**-1
     1:       0.00 cm**-1
     2:       0.00 cm**-1
     3:       0.00 cm**-1
     4:       0.00 cm**-1
     5:   -6529.63 cm**-1  ***imaginary mode***
     6:   -6529.63 cm**-1  ***imaginary mode***
     7:    7373.48 cm**-1
     8:   14061.14 cm**-1

IR SPECTRUM
-----------

 Mode   freq       eps      Int      T**2         TX        TY        TZ
       cm**-1   L/(mol*cm) km/mol    a.u.
----------------------------------------------------------------------------
  7:   7373.48   0.000000    0.00  0.000000  (-0.000001  0.000000 -0.000000)
  8:  14061.14   0.259554  1311.68  0.005760  (-0.075897 -0.000000 -0.000000)

--------------------------
THERMOCHEMISTRY AT 298.15K
--------------------------

Temperature         ...   298.15 K
Pressure            ...     1.00 atm
Total Mass          ...    44.01 AMU
Quasi RRHO          ...     True
Cut-Off Frequency   ...     1.00 cm^-1
The molecule is recognized as being linear

Throughout the following assumptions are being made:
  (1) The electronic state is orbitally nondegenerate
  (2) There are no thermally accessible electronically excited states
  (3) Hindered rotations indicated by low frequency modes are not
      treated as such but are treated as vibrations and this may
      cause some error
  (4) All equations used are the standard statistical mechanics
      equations for an ideal gas
  (5) All vibrations are strictly harmonic

freq.    7373.48  E(vib)   ...       0.00
freq.   14061.14  E(vib)   ...       0.00

------------
INNER ENERGY
------------

The inner energy is: U= E(el) + E(ZPE) + E(vib) + E(rot) + E(trans)
    E(el)   - is the total energy from the electronic structure calculation
              = E(kin-el) + E(nuc-el) + E(el-el) + E(nuc-nuc)
    E(ZPE)  - the the zero temperature vibrational energy from the frequency calculation
    E(vib)  - the the finite temperature correction to E(ZPE) due to population
              of excited vibrational states
    E(rot)  - is the rotational thermal energy
    E(trans)- is the translational thermal energy

Summary of contributions to the inner energy U:
Electronic energy                ...   -182.77052613 Eh
Zero point energy                ...      0.04883166 Eh      30.64 kcal/mol
Thermal vibrational correction   ...      0.00000000 Eh       0.00 kcal/mol
Thermal rotational correction    ...      0.00094418 Eh       0.59 kcal/mol
Thermal translational correction ...      0.00141627 Eh       0.89 kcal/mol
-----------------------------------------------------------------------
Total thermal energy                   -182.71933401 Eh

Summary of corrections to the electronic energy:
(perhaps to be used in another calculation)
Total thermal correction                  0.00236045 Eh       1.48 kcal/mol
Non-thermal (ZPE) correction              0.04883166 Eh      30.64 kcal/mol
-----------------------------------------------------------------------
Total correction                          0.05119211 Eh      32.12 kcal/mol

--------
ENTHALPY
--------

The enthalpy is H = U + kB*T
                kB is Boltzmann's constant
Total thermal energy              ...   -182.71933401 Eh
Thermal Enthalpy correction       ...      0.00094421 Eh       0.59 kcal/mol
-----------------------------------------------------------------------
Total Enthalpy                    ...   -182.71838980 Eh

Note: Rotational entropy computed according to Herzberg
Infrared and Raman Spectra, Chapter V,1, Van Nostrand Reinhold, 1945
Point Group:  D(inf)h, Symmetry Number:   1
Rotational constants in cm-1:     0.000000     1.390230     1.390230

Vibrational entropy computed according to the QRRHO of S. Grimme
Chem.Eur.J. 2012 18 9955 using a reference frequency of 100.0 cm-1

-------
ENTROPY
-------

The entropy contributions are T*S = T*(S(el)+S(vib)+S(rot)+S(trans))
     S(el)   - electronic entropy
     S(vib)  - vibrational entropy
     S(rot)  - rotational entropy
     S(trans)- translational entropy
The entropies will be listed as multiplied by the temperature to get
units of energy

Electronic entropy                ...      0.00000000 Eh      0.00 kcal/mol
Vibrational entropy               ...     -0.00000000 Eh     -0.00 kcal/mol
Rotational entropy                ...      0.00566918 Eh      3.56 kcal/mol
Translational entropy             ...      0.01770880 Eh     11.11 kcal/mol
-----------------------------------------------------------------------
Final entropy term                ...      0.02337798 Eh     14.67 kcal/mol

-------------------
GIBBS FREE ENERGY
-------------------

The Gibbs free energy is G = H - T*S

Total enthalpy                    ...   -182.71838980 Eh
Total entropy correction          ...     -0.02337798 Eh    -14.67 kcal/mol
-----------------------------------------------------------------------
Final Gibbs free energy         ...   -182.74176779 Eh

For completeness - the Gibbs free energy minus the electronic energy
G-E(el)                           ...      0.02875834 Eh     18.05 kcal/mol

                             ****ORCA TERMINATED NORMALLY****
TOTAL RUN TIME: 0 days 0 hours 0 minutes 16 seconds 874 msec
