                         Program Version 6.0.1  -  RELEASE   -
|  1> ! B3LYP def2-SVP TightSCF Freq
|  2> %output
|  3>   PrintLevel 5
|  4> end
|  5> * xyz 0 1
|  6>    C         -0.0000014014          0.0000000192          0.0000000015
|  7>    O          0.6155937128         -0.0000000096         -0.0000000008
|  8>    O         -0.6155923114         -0.0000000096         -0.0000000008
|  9> *
| 10> %elprop
| 11>  Polar 1
| 12> end
| 13>
| 14>                          ****END OF INPUT****

CARTESIAN COORDINATES (ANGSTROEM)
---------------------------------
  C     -0.000001    0.000000    0.000000
  O      0.615594   -0.000000   -0.000000
  O     -0.615592   -0.000000   -0.000000

 Total Charge           Charge          ....    0
 Multiplicity           Mult            ....    1
 Number of Electrons    NEL             ....   22
 Basis Dimension        Dim             ....   42

ORBITAL ENERGIES
----------------

  NO   OCC          E(Eh)            E(eV)
   0   2.0000     -19.203581      -522.5560
   1   2.0000     -19.203276      -522.5477
   2   2.0000     -10.740019      -292.2508
   3   2.0000      -1.279559       -34.8186
   4   2.0000      -1.191805       -32.4307
   5   2.0000      -0.971000       -26.4223
   6   2.0000      -0.971000       -26.4223
   7   2.0000      -0.519570       -14.1382
   8   2.0000      -0.372239       -10.1291
   9   2.0000      -0.372239       -10.1291
  10   2.0000      -0.356255        -9.6942
  11   0.0000       0.152678         4.1546
  12   0.0000       0.226100         6.1525
  13   0.0000       0.226100         6.1525
  14   0.0000       0.315951         8.5975
  15   0.0000       0.729105        19.8400

------------------
MOLECULAR ORBITALS (RHF, ROHF)
------------------
                      0         1         2         3         4         5
                 -19.20358 -19.20328 -10.74002  -1.27956  -1.19180  -0.97100
                   2.00000   2.00000   2.00000   2.00000   2.00000   2.00000
                  --------  --------  --------  --------  --------  --------
  0C   1s        -0.003263  0.000051 -0.971689  0.000008  0.376868  0.000000
  0C   2s         0.040421 -0.000633  0.101804  0.000016  0.032468  0.000000
  0C   3s        -0.003375  0.000053  0.008147 -0.000001 -0.054442  0.000000
  0C   1pz       -0.000000  0.000000  0.000000  0.000000  0.000000 -0.382933
  0C   1px       -0.000107 -0.006877  0.000001 -0.814582  0.000020 -0.000000
  0C   1py       -0.000000  0.000000  0.000000 -0.000000  0.000000 -0.350380
  0C   2pz        0.000000 -0.000000  0.000000  0.000000  0.000000 -0.093549
  0C   2px        0.000287  0.018319  0.000000 -0.068343  0.000002  0.000000
  0C   2py       -0.000000  0.000000  0.000000  0.000000  0.000000 -0.085596
  0C   1dz2       0.003903 -0.000061 -0.007723 -0.000003 -0.049484 -0.000000
  0C   1dxz       0.000000 -0.000000 -0.000000  0.000000 -0.000000 -0.000001
  0C   1dyz       0.000000 -0.000000 -0.000000 -0.000000 -0.000000  0.000000
  0C   1dx2y2    -0.006760  0.000106  0.013377  0.000006  0.085709  0.000000
  0C   1dxy       0.000000 -0.000000 -0.000000  0.000000 -0.000000 -0.000001
  1O   1s         0.686192 -0.707990 -0.029305 -0.238923 -0.202921 -0.000000
  1O   2s        -0.029720  0.040971 -0.055238 -0.165187 -0.513258 -0.000000
  1O   3s        -0.004982 -0.034557 -0.026667  0.227635 -0.165097 -0.000000
  1O   1pz        0.000000  0.000000 -0.000000 -0.000000  0.000000 -0.269296
  1O   1px        0.008936 -0.010237  0.034855  0.260184  0.153628 -0.000000
  1O   1py        0.000000  0.000000 -0.000000 -0.000000  0.000000 -0.246404
  1O   2pz       -0.000000 -0.000000 -0.000000 -0.000000 -0.000000  0.021215
  1O   2px        0.007797  0.001795  0.012602 -0.126770  0.042317  0.000000
  1O   2py       -0.000000  0.000000 -0.000000  0.000000 -0.000000  0.019412
  1O   1dz2       0.001153 -0.002593  0.003641  0.030036 -0.008771 -0.000000
  1O   1dxz      -0.000000 -0.000000  0.000000  0.000000 -0.000000  0.030252
  1O   1dyz      -0.000000 -0.000000  0.000000 -0.000000  0.000000 -0.000000
  1O   1dx2y2    -0.001996  0.004492 -0.006307 -0.052023  0.015192  0.000000
  1O   1dxy       0.000000 -0.000000  0.000000  0.000000 -0.000000  0.027680
  2O   1s         0.708039  0.686142 -0.029306  0.238914 -0.202934 -0.000000
  2O   2s        -0.030988 -0.040019 -0.055237  0.165147 -0.513269 -0.000000
  2O   3s        -0.003897  0.034695 -0.026667 -0.227646 -0.165088 -0.000000
  2O   1pz       -0.000000  0.000000 -0.000000  0.000000  0.000000 -0.269302
  2O   1px       -0.009252 -0.009952 -0.034855  0.260173 -0.153637  0.000000
  2O   1py        0.000000 -0.000000 -0.000000  0.000000  0.000000 -0.246409
  2O   2pz       -0.000000  0.000000 -0.000000  0.000000 -0.000000  0.021214
  2O   2px       -0.007736  0.002038 -0.012601 -0.126775 -0.042310 -0.000000
  2O   2py        0.000000 -0.000000 -0.000000 -0.000000 -0.000000  0.019411
  2O   1dz2       0.001233  0.002556  0.003641 -0.030036 -0.008770 -0.000000
  2O   1dxz      -0.000000 -0.000000 -0.000000  0.000000  0.000000 -0.030253
  2O   1dyz       0.000000 -0.000000 -0.000000 -0.000000 -0.000000 -0.000000
  2O   1dx2y2    -0.002136 -0.004427 -0.006307  0.052024  0.015190  0.000000
  2O   1dxy      -0.000000 -0.000000 -0.000000  0.000000  0.000000 -0.027681
                      6         7         8         9        10        11
                  -0.97100  -0.51957  -0.37224  -0.37224  -0.35626   0.15268
                   2.00000   2.00000   2.00000   2.00000   2.00000   0.00000
                  --------  --------  --------  --------  --------  --------
  0C   1s        -0.000000  0.000002  0.000000 -0.000000 -0.285381  0.059769
  0C   2s        -0.000000 -0.000007  0.000000 -0.000000 -0.725245  0.708274
  0C   3s        -0.000000 -0.000000  0.000000 -0.000000 -0.244467  3.228987
  0C   1pz       -0.350380 -0.000000  0.000001 -0.000002 -0.000000 -0.000000
  0C   1px       -0.000000  0.390561  0.000000  0.000000 -0.000003  0.000001
  0C   1py        0.382933  0.000000 -0.000002 -0.000001  0.000000  0.000000
  0C   2pz       -0.085596 -0.000000  0.000000 -0.000002  0.000000  0.000000
  0C   2px        0.000000 -0.117031 -0.000000 -0.000000  0.000000 -0.000006
  0C   2py        0.093549  0.000000 -0.000002 -0.000000  0.000000  0.000000
  0C   1dz2       0.000000  0.000001 -0.000000  0.000000  0.083103  0.044273
  0C   1dxz      -0.000001 -0.000000  0.003416 -0.013536  0.000000 -0.000000
  0C   1dyz       0.000000 -0.000000  0.000000 -0.000000  0.000000  0.000000
  0C   1dx2y2    -0.000000 -0.000002  0.000000 -0.000000 -0.143938 -0.076683
  0C   1dxy       0.000001 -0.000000 -0.013536 -0.003416 -0.000000 -0.000000
  1O   1s         0.000000 -0.082113  0.000000  0.000000 -0.056157 -0.087427
  1O   2s         0.000000 -0.297567  0.000000  0.000000  0.147350 -0.034294
  1O   3s         0.000000 -0.364611 -0.000000 -0.000000  0.067116 -1.906343
  1O   1pz       -0.246404  0.000000  0.136699 -0.541627  0.000000 -0.000000
  1O   1px        0.000000 -0.428680 -0.000000 -0.000000 -0.506870 -0.036380
  1O   1py        0.269296  0.000000 -0.541627 -0.136699  0.000000 -0.000000
  1O   2pz        0.019412  0.000000  0.083654 -0.331450  0.000000 -0.000000
  1O   2px       -0.000000 -0.071925 -0.000000 -0.000000 -0.400524  0.257255
  1O   2py       -0.021215  0.000000 -0.331450 -0.083654  0.000000 -0.000000
  1O   1dz2       0.000000 -0.024826 -0.000000 -0.000000  0.003744  0.010710
  1O   1dxz       0.027680 -0.000000 -0.013747  0.054470 -0.000000  0.000000
  1O   1dyz      -0.000000 -0.000000  0.000000 -0.000000  0.000000  0.000000
  1O   1dx2y2    -0.000000  0.042999  0.000000  0.000000 -0.006485 -0.018551
  1O   1dxy      -0.030252 -0.000000  0.054470  0.013747 -0.000000  0.000000
  2O   1s         0.000000  0.082111 -0.000000 -0.000000 -0.056156 -0.087427
  2O   2s         0.000000  0.297573 -0.000000 -0.000000  0.147351 -0.034295
  2O   3s         0.000000  0.364609  0.000000  0.000000  0.067119 -1.906364
  2O   1pz       -0.246409 -0.000000 -0.136699  0.541624 -0.000000 -0.000000
  2O   1px       -0.000000 -0.428680 -0.000000 -0.000000  0.506873  0.036380
  2O   1py        0.269302 -0.000000  0.541624  0.136699  0.000000 -0.000000
  2O   2pz        0.019411 -0.000000 -0.083653  0.331448 -0.000000 -0.000000
  2O   2px        0.000000 -0.071924 -0.000000 -0.000000  0.400525 -0.257257
  2O   2py       -0.021214 -0.000000  0.331448  0.083653  0.000000 -0.000000
  2O   1dz2       0.000000  0.024825  0.000000  0.000000  0.003744  0.010710
  2O   1dxz      -0.027681 -0.000000 -0.013747  0.054469 -0.000000 -0.000000
  2O   1dyz      -0.000000 -0.000000 -0.000000  0.000000 -0.000000 -0.000000
  2O   1dx2y2    -0.000000 -0.042999 -0.000000 -0.000000 -0.006485 -0.018551
  2O   1dxy       0.030253 -0.000000  0.054469  0.013747  0.000000 -0.000000
                     12        13        14        15        16        17
                   0.22610   0.22610   0.31595   0.72910   0.80116   0.80116
                   0.00000   0.00000   0.00000   0.00000   0.00000   0.00000
                  --------  --------  --------  --------  --------  --------
  0C   1s        -0.000000  0.000000 -0.000001 -0.251999  0.000000 -0.000000
  0C   2s        -0.000000  0.000000 -0.000005  4.812794 -0.000002  0.000000
  0C   3s         0.000000 -0.000000 -0.000012  1.676935 -0.000000  0.000000
  0C   1pz       -0.070666 -0.221580  0.000000 -0.000000 -0.340252 -1.097494
  0C   1px        0.000000 -0.000000 -0.097763 -0.000005 -0.000000  0.000000
  0C   1py        0.221580 -0.070666 -0.000000 -0.000000 -1.097494  0.340252
  0C   2pz        0.515194  1.615453 -0.000000 -0.000000 -0.469209 -1.513446
  0C   2px        0.000000 -0.000000 -3.244071  0.000007  0.000000 -0.000000
  0C   2py       -1.615453  0.515194 -0.000000 -0.000001 -1.513446  0.469209
  0C   1dz2       0.000000 -0.000000 -0.000000 -0.048128  0.000000 -0.000000
  0C   1dxz      -0.000000 -0.000000 -0.000000  0.000000  0.000022  0.000070
  0C   1dyz       0.000000  0.000000  0.000000 -0.000000 -0.000000 -0.000000
  0C   1dx2y2    -0.000000  0.000000  0.000000  0.083360 -0.000000  0.000000
  0C   1dxy       0.000000 -0.000000 -0.000000  0.000000  0.000070 -0.000022
  1O   1s        -0.000000  0.000000  0.062578  0.018040  0.000000 -0.000000
  1O   2s         0.000000 -0.000000 -0.000138 -0.234526  0.000000 -0.000000
  1O   3s        -0.000000  0.000000  2.879453 -2.633170  0.000001 -0.000000
  1O   1pz       -0.036720 -0.115139  0.000000  0.000000  0.053593  0.172867
  1O   1px       -0.000000  0.000000  0.153556 -0.304174  0.000000 -0.000000
  1O   1py        0.115139 -0.036720  0.000000  0.000000  0.172867 -0.053593
  1O   2pz       -0.134362 -0.421309  0.000000  0.000000  0.424294  1.368571
  1O   2px       -0.000000  0.000000  0.019704  1.723457 -0.000001  0.000000
  1O   2py        0.421309 -0.134362  0.000000  0.000000  1.368571 -0.424294
  1O   1dz2       0.000000 -0.000000 -0.001509  0.026460 -0.000000  0.000000
  1O   1dxz       0.009253  0.029015 -0.000000  0.000000  0.022130  0.071380
  1O   1dyz      -0.000000 -0.000000  0.000000 -0.000000 -0.000000 -0.000000
  1O   1dx2y2    -0.000000  0.000000  0.002614 -0.045830  0.000000 -0.000000
  1O   1dxy      -0.029015  0.009253 -0.000000  0.000000  0.071380 -0.022130
  2O   1s        -0.000000  0.000000 -0.062577  0.018041  0.000000 -0.000000
  2O   2s         0.000000 -0.000000  0.000138 -0.234532  0.000000 -0.000000
  2O   3s        -0.000000  0.000000 -2.879434 -2.633210  0.000001 -0.000000
  2O   1pz       -0.036720 -0.115139 -0.000000  0.000000  0.053557  0.172751
  2O   1px        0.000000 -0.000000  0.153558  0.304173 -0.000000  0.000000
  2O   1py        0.115139 -0.036720 -0.000000  0.000000  0.172751 -0.053557
  2O   2pz       -0.134362 -0.421307 -0.000000  0.000000  0.424414  1.368959
  2O   2px        0.000000 -0.000000  0.019714 -1.723479  0.000001 -0.000000
  2O   2py        0.421307 -0.134362 -0.000000  0.000000  1.368959 -0.424414
  2O   1dz2       0.000000 -0.000000  0.001509  0.026461 -0.000000  0.000000
  2O   1dxz      -0.009253 -0.029015 -0.000000 -0.000000 -0.022124 -0.071362
  2O   1dyz      -0.000000 -0.000000  0.000000  0.000000 -0.000000 -0.000000
  2O   1dx2y2    -0.000000  0.000000 -0.002614 -0.045831  0.000000 -0.000000
  2O   1dxy       0.029015 -0.009253 -0.000000 -0.000000 -0.071362  0.022124
                     18        19        20        21        22        23
                   0.80782   0.80782   0.84083   1.22341   1.34136   1.34136
                   0.00000   0.00000   0.00000   0.00000   0.00000   0.00000
                  --------  --------  --------  --------  --------  --------
  0C   1s        -0.000000 -0.000000 -0.000000 -0.045780  0.000000  0.000000
  0C   2s         0.000000  0.000000  0.000004  0.221043 -0.000000 -0.000000
  0C   3s        -0.000000  0.000000  0.000000  3.223286 -0.000000 -0.000001
  0C   1pz       -0.000047 -0.000192  0.000000 -0.000000 -0.299978  0.012108
  0C   1px       -0.000000  0.000000  0.565932  0.000004 -0.000000 -0.000000
  0C   1py       -0.000192  0.000047 -0.000000 -0.000000 -0.012108 -0.299978
  0C   2pz       -0.000063 -0.000259  0.000000  0.000000  1.545915 -0.062397
  0C   2px        0.000000 -0.000000 -0.945597 -0.000005  0.000000  0.000000
  0C   2py       -0.000259  0.000063 -0.000000  0.000000  0.062397  1.545915
  0C   1dz2      -0.000000 -0.000000 -0.000001  0.274574 -0.000000  0.000000
  0C   1dxz      -0.102839 -0.423573 -0.000000  0.000000 -0.000001  0.000000
  0C   1dyz       0.000000 -0.000000  0.000000 -0.000000 -0.000001 -0.000000
  0C   1dx2y2     0.000000  0.000000  0.000002 -0.475577  0.000000  0.000000
  0C   1dxy      -0.423573  0.102839 -0.000000 -0.000000 -0.000000 -0.000001
  1O   1s         0.000000 -0.000000  0.009556  0.212564 -0.000000 -0.000000
  1O   2s        -0.000000  0.000000  0.055267  2.125882 -0.000000 -0.000000
  1O   3s         0.000001 -0.000000 -2.662736 -3.364108  0.000000  0.000001
  1O   1pz       -0.083823 -0.345249 -0.000000  0.000000  0.797039 -0.032171
  1O   1px        0.000000 -0.000000 -0.118948  0.115601 -0.000000 -0.000000
  1O   1py       -0.345249  0.083823 -0.000000  0.000000  0.032171  0.797039
  1O   2pz        0.272646  1.122977  0.000000 -0.000000 -1.222314  0.049336
  1O   2px       -0.000001  0.000000  2.736993  0.163565 -0.000000 -0.000000
  1O   2py        1.122977 -0.272646  0.000001 -0.000000 -0.049336 -1.222314
  1O   1dz2      -0.000000  0.000000  0.007990  0.016495 -0.000000  0.000000
  1O   1dxz      -0.013177 -0.054274 -0.000000  0.000000  0.120354 -0.004858
  1O   1dyz       0.000000  0.000000  0.000000 -0.000000 -0.000000 -0.000000
  1O   1dx2y2     0.000000  0.000000 -0.013838 -0.028570  0.000000  0.000000
  1O   1dxy      -0.054274  0.013177 -0.000000  0.000000  0.004858  0.120354
  2O   1s        -0.000000  0.000000 -0.009557  0.212564 -0.000000 -0.000000
  2O   2s         0.000000 -0.000000 -0.055271  2.125894 -0.000000 -0.000000
  2O   3s        -0.000001  0.000000  2.662737 -3.364139  0.000000  0.000001
  2O   1pz        0.083837  0.345308  0.000000  0.000000  0.797037 -0.032171
  2O   1px        0.000000 -0.000000 -0.118949 -0.115605  0.000000  0.000000
  2O   1py        0.345308 -0.083837  0.000000  0.000000  0.032171  0.797037
  2O   2pz       -0.272531 -1.122503 -0.000000 -0.000000 -1.222316  0.049336
  2O   2px       -0.000001  0.000000  2.736992 -0.163566  0.000000  0.000000
  2O   2py       -1.122503  0.272531 -0.000001 -0.000000 -0.049336 -1.222316
  2O   1dz2       0.000000 -0.000000 -0.007990  0.016495 -0.000000  0.000000
  2O   1dxz      -0.013183 -0.054299 -0.000000 -0.000000 -0.120354  0.004858
  2O   1dyz      -0.000000 -0.000000  0.000000  0.000000 -0.000000 -0.000000
  2O   1dx2y2    -0.000000 -0.000000  0.013838 -0.028571  0.000000  0.000000
  2O   1dxy      -0.054299  0.013183 -0.000000 -0.000000 -0.004858 -0.120354
                     24        25        26        27        28        29
                   1.36482   1.36482   1.59330   2.03320   2.56710   2.56711
                   0.00000   0.00000   0.00000   0.00000   0.00000   0.00000
                  --------  --------  --------  --------  --------  --------
  0C   1s        -0.000000 -0.000000  0.000001 -0.033294 -0.000000 -0.000000
  0C   2s         0.000000  0.000000 -0.000001  6.752326  0.000000  0.000000
  0C   3s         0.000000  0.000000 -0.000007  1.677387  0.000000  0.000000
  0C   1pz       -0.000000  0.000000 -0.000000 -0.000000  0.000000  0.000000
  0C   1px       -0.000000  0.000000 -0.088426  0.000004 -0.000000  0.000000
  0C   1py       -0.000000 -0.000000 -0.000000 -0.000000 -0.000000 -0.000000
  0C   2pz        0.000001 -0.000000 -0.000000  0.000000 -0.000000  0.000000
  0C   2px        0.000000 -0.000000 -3.289628  0.000006 -0.000000  0.000000
  0C   2py        0.000000  0.000001  0.000000  0.000000 -0.000000 -0.000000
  0C   1dz2       0.000000 -0.741649 -0.000000  0.317288 -0.000002 -0.000000
  0C   1dxz      -0.000000 -0.000000 -0.000000 -0.000000 -0.000000 -0.000000
  0C   1dyz       0.856387  0.000000  0.000000 -0.000000  0.000000 -0.000002
  0C   1dx2y2     0.000000 -0.428191  0.000000 -0.549560 -0.000001  0.000000
  0C   1dxy      -0.000000 -0.000000 -0.000000  0.000000  0.000000 -0.000000
  1O   1s         0.000000  0.000000 -0.214142 -0.163275 -0.000000 -0.000000
  1O   2s         0.000000  0.000000 -1.562574 -0.532733 -0.000000 -0.000000
  1O   3s        -0.000000 -0.000000  5.249450 -3.412288  0.000000 -0.000000
  1O   1pz        0.000000 -0.000000  0.000000  0.000000  0.000000  0.000000
  1O   1px        0.000000  0.000000 -0.383311  0.776225  0.000000  0.000000
  1O   1py        0.000000  0.000000  0.000000  0.000000 -0.000000  0.000000
  1O   2pz       -0.000001  0.000000  0.000000 -0.000000  0.000000  0.000000
  1O   2px        0.000000  0.000000 -0.085831  1.296783  0.000000  0.000000
  1O   2py       -0.000000 -0.000001  0.000000 -0.000000 -0.000000  0.000000
  1O   1dz2       0.000000 -0.118418  0.011621  0.022759 -0.624629  0.000000
  1O   1dxz       0.000000 -0.000000 -0.000000  0.000000  0.000000  0.000000
  1O   1dyz       0.136733  0.000000 -0.000000  0.000000 -0.000000 -0.721259
  1O   1dx2y2     0.000000 -0.068368 -0.020128 -0.039419 -0.360630  0.000000
  1O   1dxy       0.000000  0.000000 -0.000000  0.000000 -0.000000  0.000000
  2O   1s        -0.000000  0.000000  0.214141 -0.163276 -0.000000 -0.000000
  2O   2s        -0.000000  0.000000  1.562563 -0.532740 -0.000000 -0.000000
  2O   3s         0.000000 -0.000000 -5.249433 -3.412334 -0.000000  0.000000
  2O   1pz        0.000000 -0.000000 -0.000000  0.000000 -0.000000 -0.000000
  2O   1px        0.000000 -0.000000 -0.383315 -0.776225 -0.000000 -0.000000
  2O   1py        0.000000  0.000000 -0.000000  0.000000  0.000000 -0.000000
  2O   2pz       -0.000001  0.000000 -0.000000 -0.000000 -0.000000 -0.000000
  2O   2px       -0.000000 -0.000000 -0.085816 -1.296813 -0.000000 -0.000000
  2O   2py       -0.000000 -0.000001 -0.000000 -0.000000  0.000000 -0.000000
  2O   1dz2       0.000000 -0.118417 -0.011621  0.022761  0.624628 -0.000000
  2O   1dxz      -0.000000  0.000000 -0.000000 -0.000000  0.000000  0.000000
  2O   1dyz       0.136733  0.000000  0.000000 -0.000000  0.000000  0.721258
  2O   1dx2y2     0.000000 -0.068368  0.020128 -0.039423  0.360629 -0.000000
  2O   1dxy      -0.000000 -0.000000 -0.000000 -0.000000 -0.000000  0.000000
                     30        31        32        33        34        35
                   2.96074   2.96074   3.27517   3.30821   3.56455   3.56455
                   0.00000   0.00000   0.00000   0.00000   0.00000   0.00000
                  --------  --------  --------  --------  --------  --------
  0C   1s         0.000000  0.000000  0.439437 -0.000075  0.000000 -0.000000
  0C   2s        -0.000000 -0.000000  9.357972 -0.001474 -0.000000  0.000000
  0C   3s         0.000000  0.000000  1.239682 -0.000189 -0.000000  0.000000
  0C   1pz        0.000000 -0.000000 -0.000000  0.000000  0.000000  0.000000
  0C   1px       -0.000000 -0.000000 -0.000024 -0.106690  0.000000  0.000000
  0C   1py       -0.000000 -0.000000 -0.000000  0.000000 -0.000000  0.000000
  0C   2pz        0.000000 -0.000001  0.000000  0.000000  0.000000  0.000000
  0C   2px        0.000000  0.000000  0.000018  0.080076  0.000000  0.000000
  0C   2py       -0.000001 -0.000000  0.000000  0.000000 -0.000000  0.000000
  0C   1dz2       0.000000  0.000000 -0.733017  0.000119  0.909197  0.000000
  0C   1dxz       0.059661 -0.376053 -0.000000  0.000000 -0.000000  0.000000
  0C   1dyz       0.000000  0.000000  0.000000 -0.000000 -0.000000  1.049846
  0C   1dx2y2    -0.000000 -0.000000  1.269622 -0.000207  0.524925  0.000000
  0C   1dxy      -0.376053 -0.059661  0.000000  0.000000 -0.000000 -0.000000
  1O   1s         0.000000  0.000000  0.004803  0.009865  0.000000 -0.000000
  1O   2s         0.000000  0.000000 -2.628781  0.448189  0.000000 -0.000000
  1O   3s        -0.000000 -0.000000 -3.125226 -2.422683 -0.000000 -0.000000
  1O   1pz       -0.050800  0.320198 -0.000000 -0.000000  0.000000  0.000000
  1O   1px       -0.000000 -0.000000  0.683248  0.059267 -0.000000  0.000000
  1O   1py        0.320198  0.050800 -0.000000 -0.000000 -0.000000  0.000000
  1O   2pz        0.036331 -0.229000 -0.000000 -0.000000 -0.000000 -0.000000
  1O   2px        0.000000  0.000000  1.467028  1.524570 -0.000000  0.000000
  1O   2py       -0.229000 -0.036331 -0.000000 -0.000000  0.000000 -0.000000
  1O   1dz2      -0.000000  0.000000  0.354027  0.498366 -0.805337 -0.000000
  1O   1dxz      -0.108232  0.682206  0.000000  0.000000  0.000000  0.000000
  1O   1dyz      -0.000000  0.000000  0.000000  0.000000  0.000000 -0.929924
  1O   1dx2y2    -0.000000 -0.000000 -0.613193 -0.863195 -0.464962 -0.000000
  1O   1dxy       0.682206  0.108232  0.000000  0.000000 -0.000000  0.000000
  2O   1s        -0.000000 -0.000000  0.004799 -0.009867  0.000000 -0.000000
  2O   2s        -0.000000 -0.000000 -2.628957 -0.447343  0.000000 -0.000000
  2O   3s         0.000000  0.000000 -3.124465  2.423653  0.000000  0.000000
  2O   1pz        0.050800 -0.320199 -0.000000  0.000000  0.000000  0.000000
  2O   1px       -0.000000 -0.000000 -0.683227  0.059483  0.000000 -0.000000
  2O   1py       -0.320199 -0.050800 -0.000000  0.000000 -0.000000  0.000000
  2O   2pz       -0.036331  0.229003 -0.000000  0.000000 -0.000000 -0.000000
  2O   2px        0.000000  0.000000 -1.466544  1.525029  0.000000 -0.000000
  2O   2py        0.229003  0.036331 -0.000000  0.000000  0.000000 -0.000000
  2O   1dz2       0.000000 -0.000000  0.353867 -0.498480 -0.805341 -0.000000
  2O   1dxz      -0.108232  0.682207 -0.000000  0.000000 -0.000000 -0.000000
  2O   1dyz       0.000000 -0.000000 -0.000000  0.000000  0.000000 -0.929929
  2O   1dx2y2     0.000000  0.000000 -0.612916  0.863393 -0.464964 -0.000000
  2O   1dxy       0.682207  0.108232 -0.000000  0.000000  0.000000 -0.000000
                     36        37        38        39        40        41
                   4.15152   4.15152   4.49334   4.49334   6.41683   7.13683
                   0.00000   0.00000   0.00000   0.00000   0.00000   0.00000
                  --------  --------  --------  --------  --------  --------
  0C   1s         0.000000 -0.000000  0.000000 -0.000000  0.635222 -0.000010
  0C   2s         0.000000 -0.000000 -0.000000  0.000000-21.348037  0.000671
  0C   3s         0.000000 -0.000000  0.000000 -0.000000 -0.412661  0.000026
  0C   1pz        0.000004  0.000011 -0.717288 -2.417301  0.000000  0.000000
  0C   1px       -0.000000  0.000000  0.000000  0.000000 -0.000069 -5.676663
  0C   1py        0.000011 -0.000004 -2.417301  0.717288  0.000000 -0.000000
  0C   2pz        0.000001  0.000002 -0.219652 -0.740240 -0.000000 -0.000000
  0C   2px       -0.000000  0.000000  0.000000 -0.000000  0.000004 -0.050390
  0C   2py        0.000002 -0.000001 -0.740240  0.219652 -0.000000  0.000000
  0C   1dz2       0.000000  0.000000  0.000000  0.000000  3.244289 -0.000085
  0C   1dxz      -0.945006 -2.527070  0.000001  0.000005  0.000000  0.000000
  0C   1dyz       0.000000  0.000000  0.000000  0.000000  0.000000  0.000000
  0C   1dx2y2    -0.000000 -0.000000 -0.000000  0.000000 -5.619274  0.000147
  0C   1dxy      -2.527070  0.945006  0.000005 -0.000001  0.000000  0.000000
  1O   1s         0.000000 -0.000000 -0.000000  0.000000 -0.138389  0.177924
  1O   2s        -0.000000  0.000000  0.000000 -0.000000  9.843534  3.786650
  1O   3s         0.000000 -0.000000 -0.000000  0.000000  3.725680  2.279227
  1O   1pz        0.530015  1.417329  0.151925  0.511994  0.000000  0.000000
  1O   1px        0.000000 -0.000000  0.000000 -0.000000 -1.718328 -1.778212
  1O   1py        1.417329 -0.530015  0.511994 -0.151925  0.000000  0.000000
  1O   2pz        0.223564  0.597839  0.301348  1.015559  0.000000  0.000000
  1O   2px       -0.000000  0.000000  0.000000 -0.000000 -1.900534 -1.260166
  1O   2py        0.597839 -0.223564  1.015559 -0.301348  0.000000  0.000000
  1O   1dz2      -0.000000  0.000000  0.000000 -0.000000  0.302661 -0.273448
  1O   1dxz      -0.328184 -0.877608 -0.330335 -1.113249 -0.000000 -0.000000
  1O   1dyz       0.000000  0.000000 -0.000000 -0.000000 -0.000000 -0.000000
  1O   1dx2y2    -0.000000  0.000000 -0.000000  0.000000 -0.524225  0.473625
  1O   1dxy      -0.877608  0.328184 -1.113249  0.330335 -0.000000 -0.000000
  2O   1s        -0.000000  0.000000 -0.000000  0.000000 -0.138400 -0.177913
  2O   2s         0.000000 -0.000000  0.000000 -0.000000  9.843462 -3.787224
  2O   3s        -0.000000  0.000000 -0.000000  0.000000  3.725668 -2.279500
  2O   1pz       -0.530019 -1.417340  0.151929  0.512008  0.000000 -0.000000
  2O   1px        0.000000 -0.000000 -0.000000  0.000000  1.718226 -1.778310
  2O   1py       -1.417340  0.530019  0.512008 -0.151929  0.000000 -0.000000
  2O   2pz       -0.223566 -0.597844  0.301351  1.015569  0.000000 -0.000000
  2O   2px       -0.000000  0.000000 -0.000000  0.000000  1.900500 -1.260291
  2O   2py       -0.597844  0.223566  1.015569 -0.301351  0.000000 -0.000000
  2O   1dz2       0.000000 -0.000000  0.000000 -0.000000  0.302674  0.273426
  2O   1dxz      -0.328180 -0.877597  0.330338  1.113259  0.000000 -0.000000
  2O   1dyz      -0.000000 -0.000000 -0.000000 -0.000000  0.000000 -0.000000
  2O   1dx2y2     0.000000 -0.000000 -0.000000  0.000000 -0.524246 -0.473588
  2O   1dxy      -0.877597  0.328180  1.113259 -0.330338  0.000000 -0.000000

MULLIKEN ATOMIC CHARGES
-----------------------
   0 C :    0.133668
   1 O :   -0.066845
   2 O :   -0.066823
Sum of atomic charges:   -0.0000000

LOEWDIN ATOMIC CHARGES
----------------------
   0 C :   -0.821547
   1 O :    0.410770
   2 O :    0.410777

  Mayer bond orders larger than 0.100000
B(  0-C ,  1-O ) :   1.8263 B(  0-C ,  2-O ) :   1.8264 B(  1-O ,  2-O ) :   1.3538

FINAL SINGLE POINT ENERGY      -182.770526126976

DIPOLE MOMENT
-------------

Method             : SCF
Type of density    : Electron Density
Multiplicity       :   1
Irrep              :   0
Energy             :  -182.7705261269758807 Eh
Relativity type    :
Basis              : AO
                                X                 Y                 Z
Electronic contribution:     -0.000013635       0.000000062       0.000000006
Nuclear contribution   :      0.000000017      -0.000000000      -0.000000000
                        -----------------------------------------
Total Dipole Moment    :     -0.000013618       0.000000062       0.000000006
                        -----------------------------------------
Magnitude (a.u.)       :      0.000013619
Magnitude (Debye)      :      0.000034616

VIBRATIONAL FREQUENCIES
-----------------------

Scaling factor for frequencies =  1.000000000  (already applied!)

     0:       0.00 cm**-1
     1:       0.00 cm**-1
     2:       0.00 cm**-1
     3:       0.00 cm**-1
     4:       0.00 cm**-1
     5:   -6529.68 cm**-1  ***imaginary mode***
     6:   -6529.68 cm**-1  ***imaginary mode***
     7:    7373.47 cm**-1
     8:   14061.10 cm**-1

IR SPECTRUM
-----------

 Mode   freq       eps      Int      T**2         TX        TY        TZ
       cm**-1   L/(mol*cm) km/mol    a.u.
----------------------------------------------------------------------------
  7:   7373.47   0.000000    0.00  0.000000  (-0.000001  0.000000 -0.000000)
  8:  14061.10   0.259549  1311.65  0.005760  (-0.075896 -0.000000 -0.000000)

--------------------------
THERMOCHEMISTRY AT 298.15K
--------------------------

Temperature         ...   298.15 K
Pressure            ...     1.00 atm
Total Mass          ...    44.01 AMU
Quasi RRHO          ...     True
Cut-Off Frequency   ...     1.00 cm^-1
The molecule is recognized as being linear

Throughout the following assumptions are being made:
  (1) The electronic state is orbitally nondegenerate
  (2) There are no thermally accessible electronically excited states
  (3) Hindered rotations indicated by low frequency modes are not
      treated as such but are treated as vibrations and this may
      cause some error
  (4) All equations used are the standard statistical mechanics
      equations for an ideal gas
  (5) All vibrations are strictly harmonic

freq.    7373.47  E(vib)   ...       0.00
freq.   14061.10  E(vib)   ...       0.00

------------
INNER ENERGY
------------

The inner energy is: U= E(el) + E(ZPE) + E(vib) + E(rot) + E(trans)
    E(el)   - is the total energy from the electronic structure calculation
              = E(kin-el) + E(nuc-el) + E(el-el) + E(nuc-nuc)
    E(ZPE)  - the the zero temperature vibrational energy from the frequency calculation
    E(vib)  - the the finite temperature correction to E(ZPE) due to population
              of excited vibrational states
    E(rot)  - is the rotational thermal energy
    E(trans)- is the translational thermal energy

Summary of contributions to the inner energy U:
Electronic energy                ...   -182.77052613 Eh
Zero point energy                ...      0.04883154 Eh      30.64 kcal/mol
Thermal vibrational correction   ...      0.00000000 Eh       0.00 kcal/mol
Thermal rotational correction    ...      0.00094418 Eh       0.59 kcal/mol
Thermal translational correction ...      0.00141627 Eh       0.89 kcal/mol
-----------------------------------------------------------------------
Total thermal energy                   -182.71933414 Eh

Summary of corrections to the electronic energy:
(perhaps to be used in another calculation)
Total thermal correction                  0.00236045 Eh       1.48 kcal/mol
Non-thermal (ZPE) correction              0.04883154 Eh      30.64 kcal/mol
-----------------------------------------------------------------------
Total correction                          0.05119199 Eh      32.12 kcal/mol

--------
ENTHALPY
--------

The enthalpy is H = U + kB*T
                kB is Boltzmann's constant
Total thermal energy              ...   -182.71933414 Eh
Thermal Enthalpy correction       ...      0.00094421 Eh       0.59 kcal/mol
-----------------------------------------------------------------------
Total Enthalpy                    ...   -182.71838993 Eh

Note: Rotational entropy computed according to Herzberg
Infrared and Raman Spectra, Chapter V,1, Van Nostrand Reinhold, 1945
Point Group:  D(inf)h, Symmetry Number:   1
Rotational constants in cm-1:     0.000000     1.390230     1.390230

Vibrational entropy computed according to the QRRHO of S. Grimme
Chem.Eur.J. 2012 18 9955 using a reference frequency of 100.0 cm-1

-------
ENTROPY
-------

The entropy contributions are T*S = T*(S(el)+S(vib)+S(rot)+S(trans))
     S(el)   - electronic entropy
     S(vib)  - vibrational entropy
     S(rot)  - rotational entropy
     S(trans)- translational entropy
The entropies will be listed as multiplied by the temperature to get
units of energy

Electronic entropy                ...      0.00000000 Eh      0.00 kcal/mol
Vibrational entropy               ...     -0.00000000 Eh     -0.00 kcal/mol
Rotational entropy                ...      0.00566918 Eh      3.56 kcal/mol
Translational entropy             ...      0.01770880 Eh     11.11 kcal/mol
-----------------------------------------------------------------------
Final entropy term                ...      0.02337798 Eh     14.67 kcal/mol

-------------------
GIBBS FREE ENERGY
-------------------

The Gibbs free energy is G = H - T*S

Total enthalpy                    ...   -182.71838993 Eh
Total entropy correction          ...     -0.02337798 Eh    -14.67 kcal/mol
-----------------------------------------------------------------------
Final Gibbs free energy         ...   -182.74176791 Eh

For completeness - the Gibbs free energy minus the electronic energy
G-E(el)                           ...      0.02875821 Eh     18.05 kcal/mol

                             ****ORCA TERMINATED NORMALLY****
TOTAL RUN TIME: 0 days 0 hours 0 minutes 14 seconds 769 msec
