                         Program Version 6.0.1  -  RELEASE   -
|  1> ! B3LYP def2-SVP TightSCF
|  2>
|  3> * xyz 0 1
|  4>  C     -0.1092362502     0.0000000202     0.0000000025
|  5>  O      0.6511191308    -0.0000000129    -0.0000000019
|  6>  O     -0.5800633739    -0.0000000070    -0.0000000005
|  7> *
|  8>
|  9>                          ****END OF INPUT****

CARTESIAN COORDINATES (ANGSTROEM)
---------------------------------
  C     -0.109236    0.000000    0.000000
  O      0.651119   -0.000000   -0.000000
  O     -0.580063   -0.000000   -0.000000

 Total Charge           Charge          ....    0
 Multiplicity           Mult            ....    1
 Number of Electrons    NEL             ....   22
 Basis Dimension        Dim             ....   42

ORBITAL ENERGIES
----------------

  NO   OCC          E(Eh)            E(eV)
   0   2.0000     -19.833749      -539.7038
   1   2.0000     -19.025963      -517.7228
   2   2.0000     -11.260497      -306.4137
   3   2.0000      -1.332928       -36.2708
   4   2.0000      -1.156569       -31.4719
   5   2.0000      -1.156569       -31.4719
   6   2.0000      -1.075611       -29.2689
   7   2.0000      -0.474725       -12.9179
   8   2.0000      -0.351842        -9.5741
   9   2.0000      -0.351842        -9.5741
  10   2.0000      -0.269162        -7.3243
  11   0.0000       0.139956         3.8084
  12   0.0000       0.211744         5.7619
  13   0.0000       0.211744         5.7619
  14   0.0000       0.314312         8.5529
  15   0.0000       0.735991        20.0273

MULLIKEN ATOMIC CHARGES
-----------------------
   0 C :   -0.631742
   1 O :   -0.304939
   2 O :    0.936681
Sum of atomic charges:    0.0000000

LOEWDIN ATOMIC CHARGES
----------------------
   0 C :   -0.719838
   1 O :    0.169250
   2 O :    0.550587

  Mayer bond orders larger than 0.100000
B(  0-C ,  1-O ) :   1.9049 B(  0-C ,  2-O ) :   2.2774 B(  1-O ,  2-O ) :   0.7573

FINAL SINGLE POINT ENERGY      -180.194314129242

DIPOLE MOMENT
-------------

Method             : SCF
Type of density    : Electron Density
Multiplicity       :   1
Irrep              :   0
Energy             :  -180.1943141292418318 Eh
Relativity type    :
Basis              : AO
                                X                 Y                 Z
Electronic contribution:     -0.775413311       0.000000056       0.000000006
Nuclear contribution   :      0.001168628      -0.000000000      -0.000000000
                        -----------------------------------------
Total Dipole Moment    :     -0.774244683       0.000000056       0.000000006
                        -----------------------------------------
Magnitude (a.u.)       :      0.774244683
Magnitude (Debye)      :      1.967973587

Rotational constants in cm-1:             0.000000             1.369567             1.369567
Rotational constants in MHz :             0.000000         41058.593694         41058.593694

                             ****ORCA TERMINATED NORMALLY****
TOTAL RUN TIME: 0 days 0 hours 0 minutes 1 seconds 638 msec
