                         Program Version 6.0.1  -  RELEASE   -
|  1> ! B3LYP def2-SVP TightSCF
|  2>
|  3> * xyz 0 1
|  4>  C     -0.0000014014     0.0036823837     0.0767882534
|  5>  O      0.6155937150    -0.0011976840    -0.0249750261
|  6>  O     -0.6155923156    -0.0011976151    -0.0249736851
|  7> *
|  8>
|  9>                          ****END OF INPUT****

CARTESIAN COORDINATES (ANGSTROEM)
---------------------------------
  C     -0.000001    0.003682    0.076788
  O      0.615594   -0.001198   -0.024975
  O     -0.615592   -0.001198   -0.024974

 Total Charge           Charge          ....    0
 Multiplicity           Mult            ....    1
 Number of Electrons    NEL             ....   22
 Basis Dimension        Dim             ....   42

ORBITAL ENERGIES
----------------

  NO   OCC          E(Eh)            E(eV)
   0   2.0000     -19.189952      -522.1852
   1   2.0000     -19.189850      -522.1824
   2   2.0000     -10.695834      -291.0485
   3   2.0000      -1.279574       -34.8190
   4   2.0000      -1.219280       -33.1783
   5   2.0000      -0.958432       -26.0803
   6   2.0000      -0.948828       -25.8189
   7   2.0000      -0.518696       -14.1144
   8   2.0000      -0.365788        -9.9536
   9   2.0000      -0.365648        -9.9498
  10   2.0000      -0.341641        -9.2965
  11   0.0000       0.146780         3.9941
  12   0.0000       0.226572         6.1653
  13   0.0000       0.231618         6.3026
  14   0.0000       0.314257         8.5514
  15   0.0000       0.639235        17.3945

MULLIKEN ATOMIC CHARGES
-----------------------
   0 C :   -0.020568
   1 O :    0.010273
   2 O :    0.010294
Sum of atomic charges:   -0.0000000

LOEWDIN ATOMIC CHARGES
----------------------
   0 C :   -0.789078
   1 O :    0.394536
   2 O :    0.394542

  Mayer bond orders larger than 0.100000
B(  0-C ,  1-O ) :   2.0023 B(  0-C ,  2-O ) :   2.0023 B(  1-O ,  2-O ) :   1.0595

FINAL SINGLE POINT ENERGY      -183.023048230509

DIPOLE MOMENT
-------------

Method             : SCF
Type of density    : Electron Density
Multiplicity       :   1
Irrep              :   0
Energy             :  -183.0230482305092039 Eh
Relativity type    :
Basis              : AO
                                X                 Y                 Z
Electronic contribution:     -0.000014303       0.010725554       0.223653304
Nuclear contribution   :      0.000000017      -0.000039395      -0.000821492
                        -----------------------------------------
Total Dipole Moment    :     -0.000014286       0.010686159       0.222831811
                        -----------------------------------------
Magnitude (a.u.)       :      0.223087898
Magnitude (Debye)      :      0.567044374

Rotational constants in cm-1:           185.978328             1.390230             1.379915
Rotational constants in MHz :       5575490.008227         41678.051098         41368.809870

                             ****ORCA TERMINATED NORMALLY****
TOTAL RUN TIME: 0 days 0 hours 0 minutes 1 seconds 963 msec
