                         Program Version 6.0.1  -  RELEASE   -
|  1> ! B3LYP def2-SVP TightSCF
|  2>
|  3> * xyz 0 1
|  4>  C     -0.0000014001     0.1172727668    -0.0056237885
|  5>  O      0.6155937106    -0.0381424240     0.0018291072
|  6>  O     -0.6155923096    -0.0381403895     0.0018290167
|  7> *
|  8>
|  9>                          ****END OF INPUT****

CARTESIAN COORDINATES (ANGSTROEM)
---------------------------------
  C     -0.000001    0.117273   -0.005624
  O      0.615594   -0.038142    0.001829
  O     -0.615592   -0.038140    0.001829

 Total Charge           Charge          ....    0
 Multiplicity           Mult            ....    1
 Number of Electrons    NEL             ....   22
 Basis Dimension        Dim             ....   42

ORBITAL ENERGIES
----------------

  NO   OCC          E(Eh)            E(eV)
   0   2.0000     -19.175507      -521.7921
   1   2.0000     -19.175427      -521.7899
   2   2.0000     -10.647019      -289.7201
   3   2.0000      -1.277723       -34.7686
   4   2.0000      -1.252707       -34.0879
   5   2.0000      -0.943614       -25.6770
   6   2.0000      -0.923764       -25.1369
   7   2.0000      -0.516568       -14.0565
   8   2.0000      -0.379111       -10.3161
   9   2.0000      -0.358283        -9.7494
  10   2.0000      -0.307362        -8.3638
  11   0.0000       0.137725         3.7477
  12   0.0000       0.226869         6.1734
  13   0.0000       0.238342         6.4856
  14   0.0000       0.311898         8.4872
  15   0.0000       0.556473        15.1424

MULLIKEN ATOMIC CHARGES
-----------------------
   0 C :   -0.152441
   1 O :    0.076210
   2 O :    0.076231
Sum of atomic charges:   -0.0000000

LOEWDIN ATOMIC CHARGES
----------------------
   0 C :   -0.749440
   1 O :    0.374717
   2 O :    0.374724

  Mayer bond orders larger than 0.100000
B(  0-C ,  1-O ) :   2.1489 B(  0-C ,  2-O ) :   2.1490 B(  1-O ,  2-O ) :   0.8139

FINAL SINGLE POINT ENERGY      -183.334545191953

DIPOLE MOMENT
-------------

Method             : SCF
Type of density    : Electron Density
Multiplicity       :   1
Irrep              :   0
Energy             :  -183.3345451919531968 Eh
Relativity type    :
Basis              : AO
                                X                 Y                 Z
Electronic contribution:     -0.000015270       0.329540935      -0.015803421
Nuclear contribution   :      0.000000017      -0.001254602       0.000060164
                        -----------------------------------------
Total Dipole Moment    :     -0.000015253       0.328286333      -0.015743257
                        -----------------------------------------
Magnitude (a.u.)       :      0.328663607
Magnitude (Debye)      :      0.835396500

Rotational constants in cm-1:            79.736574             1.390230             1.366406
Rotational constants in MHz :       2390442.347067         41678.051802         40963.835514

                             ****ORCA TERMINATED NORMALLY****
TOTAL RUN TIME: 0 days 0 hours 0 minutes 1 seconds 979 msec
