                         Program Version 6.0.1  -  RELEASE   -
|  1> ! B3LYP def2-SVP TightSCF
|  2>
|  3> * xyz 0 1
|  4>  C      0.1092334475     0.0000000182     0.0000000005
|  5>  O      0.5800682948    -0.0000000064     0.0000000003
|  6>  O     -0.6511212490    -0.0000000122    -0.0000000010
|  7> *
|  8>
|  9>                          ****END OF INPUT****

CARTESIAN COORDINATES (ANGSTROEM)
---------------------------------
  C      0.109233    0.000000    0.000000
  O      0.580068   -0.000000    0.000000
  O     -0.651121   -0.000000   -0.000000

 Total Charge           Charge          ....    0
 Multiplicity           Mult            ....    1
 Number of Electrons    NEL             ....   22
 Basis Dimension        Dim             ....   42

ORBITAL ENERGIES
----------------

  NO   OCC          E(Eh)            E(eV)
   0   2.0000     -19.833694      -539.7023
   1   2.0000     -19.025965      -517.7228
   2   2.0000     -11.260431      -306.4119
   3   2.0000      -1.332921       -36.2706
   4   2.0000      -1.156548       -31.4713
   5   2.0000      -1.156548       -31.4713
   6   2.0000      -1.075617       -29.2690
   7   2.0000      -0.474727       -12.9180
   8   2.0000      -0.351842        -9.5741
   9   2.0000      -0.351842        -9.5741
  10   2.0000      -0.269175        -7.3246
  11   0.0000       0.139957         3.8084
  12   0.0000       0.211746         5.7619
  13   0.0000       0.211746         5.7619
  14   0.0000       0.314312         8.5529
  15   0.0000       0.735992        20.0274

MULLIKEN ATOMIC CHARGES
-----------------------
   0 C :   -0.631727
   1 O :    0.936676
   2 O :   -0.304949
Sum of atomic charges:   -0.0000000

LOEWDIN ATOMIC CHARGES
----------------------
   0 C :   -0.719840
   1 O :    0.550587
   2 O :    0.169253

  Mayer bond orders larger than 0.100000
B(  0-C ,  1-O ) :   2.2774 B(  0-C ,  2-O ) :   1.9049 B(  1-O ,  2-O ) :   0.7573

FINAL SINGLE POINT ENERGY      -180.194659440907

DIPOLE MOMENT
-------------

Method             : SCF
Type of density    : Electron Density
Multiplicity       :   1
Irrep              :   0
Energy             :  -180.1946594409072873 Eh
Relativity type    :
Basis              : AO
                                X                 Y                 Z
Electronic contribution:      0.775405317       0.000000052       0.000000002
Nuclear contribution   :     -0.001168594      -0.000000000      -0.000000000
                        -----------------------------------------
Total Dipole Moment    :      0.774236723       0.000000051       0.000000002
                        -----------------------------------------
Magnitude (a.u.)       :      0.774236723
Magnitude (Debye)      :      1.967953355

Rotational constants in cm-1:             0.000000             1.369553             1.369553
Rotational constants in MHz :             0.000000         41058.166642         41058.166642

                             ****ORCA TERMINATED NORMALLY****
TOTAL RUN TIME: 0 days 0 hours 0 minutes 1 seconds 637 msec
