                         Program Version 6.0.1  -  RELEASE   -
|  1> ! B3LYP def2-SVP TightSCF
|  2>
|  3> * xyz 0 1
|  4>  C     -0.0000006491     0.0000000180     0.0000000027
|  5>  O      0.5974954027    -0.0000000111    -0.0000000026
|  6>  O     -0.5974944906    -0.0000000086    -0.0000000015
|  7> *
|  8>
|  9>                          ****END OF INPUT****

CARTESIAN COORDINATES (ANGSTROEM)
---------------------------------
  C     -0.000001    0.000000    0.000000
  O      0.597495   -0.000000   -0.000000
  O     -0.597494   -0.000000   -0.000000

 Total Charge           Charge          ....    0
 Multiplicity           Mult            ....    1
 Number of Electrons    NEL             ....   22
 Basis Dimension        Dim             ....   42

ORBITAL ENERGIES
----------------

  NO   OCC          E(Eh)            E(eV)
   0   2.0000     -19.229999      -523.2749
   1   2.0000     -19.229448      -523.2599
   2   2.0000     -10.837281      -294.8974
   3   2.0000      -1.265826       -34.4449
   4   2.0000      -1.183222       -32.1971
   5   2.0000      -1.009290       -27.4642
   6   2.0000      -1.009290       -27.4642
   7   2.0000      -0.521727       -14.1969
   8   2.0000      -0.372807       -10.1446
   9   2.0000      -0.372807       -10.1446
  10   2.0000      -0.336082        -9.1453
  11   0.0000       0.153634         4.1806
  12   0.0000       0.219738         5.9794
  13   0.0000       0.219738         5.9794
  14   0.0000       0.313533         8.5317
  15   0.0000       0.738869        20.1056

MULLIKEN ATOMIC CHARGES
-----------------------
   0 C :    0.126971
   1 O :   -0.063491
   2 O :   -0.063479
Sum of atomic charges:    0.0000000

LOEWDIN ATOMIC CHARGES
----------------------
   0 C :   -0.841792
   1 O :    0.420894
   2 O :    0.420898

  Mayer bond orders larger than 0.100000
B(  0-C ,  1-O ) :   1.7210 B(  0-C ,  2-O ) :   1.7210 B(  1-O ,  2-O ) :   1.4940

FINAL SINGLE POINT ENERGY      -182.041004468900

DIPOLE MOMENT
-------------

Method             : SCF
Type of density    : Electron Density
Multiplicity       :   1
Irrep              :   0
Energy             :  -182.0410044688997004 Eh
Relativity type    :
Basis              : AO
                                X                 Y                 Z
Electronic contribution:     -0.000006998       0.000000057       0.000000009
Nuclear contribution   :      0.000000009      -0.000000000      -0.000000000
                        -----------------------------------------
Total Dipole Moment    :     -0.000006989       0.000000057       0.000000009
                        -----------------------------------------
Magnitude (a.u.)       :      0.000006989
Magnitude (Debye)      :      0.000017764

Rotational constants in cm-1:             0.000000             1.475726             1.475726
Rotational constants in MHz :             0.000000         44241.138724         44241.138724

                             ****ORCA TERMINATED NORMALLY****
TOTAL RUN TIME: 0 days 0 hours 0 minutes 1 seconds 781 msec
