                         Program Version 6.0.1  -  RELEASE   -
|  1> ! B3LYP def2-SVP Opt TightSCF
|  2>
|  3> %maxcore 2000
|  4> * xyz 0 1
|  5>  C    0.000000    0.000000    0.000000
|  6>  O    1.200000    0.000000    0.000000
|  7>  O   -1.200000    0.000000    0.000000
|  8> *
|  9>
| 10>
| 11>                          ****END OF INPUT****
 Total Charge           Charge          ....    0
 Multiplicity           Mult            ....    1
 Number of Electrons    NEL             ....   22
FINAL SINGLE POINT ENERGY      -188.355293991257
FINAL SINGLE POINT ENERGY      -188.360401694798
FINAL SINGLE POINT ENERGY      -188.360449436929
FINAL SINGLE POINT ENERGY      -188.360450352832
                    ***********************HURRAY********************

CARTESIAN COORDINATES (ANGSTROEM)
---------------------------------
  C      0.000000   -0.000000    0.000000
  O      1.163312    0.000000   -0.000000
  O     -1.163312    0.000000   -0.000000

 Multiplicity           Mult            ....    1
 Number of Electrons    NEL             ....   22
 Basis Dimension        Dim             ....   42

ORBITAL ENERGIES
----------------

  NO   OCC          E(Eh)            E(eV)
   0   2.0000     -19.214739      -522.8596
   1   2.0000     -19.214671      -522.8578
   2   2.0000     -10.376419      -282.3567
   3   2.0000      -1.147181       -31.2164
   4   2.0000      -1.108360       -30.1600
   5   2.0000      -0.550941       -14.9919
   6   2.0000      -0.516148       -14.0451
   7   2.0000      -0.516148       -14.0451
   8   2.0000      -0.514081       -13.9888
   9   2.0000      -0.370166       -10.0727
  10   2.0000      -0.370166       -10.0727
  11   0.0000       0.033527         0.9123
  12   0.0000       0.033527         0.9123
  13   0.0000       0.061467         1.6726
  14   0.0000       0.342240         9.3128
  15   0.0000       0.417369        11.3572

MULLIKEN ATOMIC CHARGES
-----------------------
   0 C :    0.264599
   1 O :   -0.132294
   2 O :   -0.132306
Sum of atomic charges:    0.0000000

LOEWDIN ATOMIC CHARGES
----------------------
   0 C :    0.133771
   1 O :   -0.066880
   2 O :   -0.066891

  Mayer bond orders larger than 0.100000
B(  0-C ,  1-O ) :   2.1723 B(  0-C ,  2-O ) :   2.1723 B(  1-O ,  2-O ) :   0.2703

FINAL SINGLE POINT ENERGY      -188.360450354818

DIPOLE MOMENT
-------------

Method             : SCF
Type of density    : Electron Density
Multiplicity       :   1
Irrep              :   0
Energy             :  -188.3604503548179139 Eh
Relativity type    :
Basis              : AO
                                X                 Y                 Z
Electronic contribution:      0.000021951      -0.000000019       0.000000033
Nuclear contribution   :     -0.000000003       0.000000000      -0.000000000
                        -----------------------------------------
Total Dipole Moment    :      0.000021948      -0.000000019       0.000000033
                        -----------------------------------------
Magnitude (a.u.)       :      0.000021948
Magnitude (Debye)      :      0.000055787

Rotational constants in cm-1:             0.000000             0.389298             0.389298
Rotational constants in MHz :             0.000000         11670.847507         11670.847507

                             ****ORCA TERMINATED NORMALLY****
TOTAL RUN TIME: 0 days 0 hours 0 minutes 11 seconds 686 msec
