                         Program Version 6.0.1  -  RELEASE   -
|  1> ! B3LYP def2-SVP TightSCF
|  2>
|  3> * xyz 0 1
|  4>  C      0.0000009190     0.0000000154     0.0000000053
|  5>  O      0.5597689542    -0.0000000142    -0.0000000065
|  6>  O     -0.5597690622    -0.0000000064    -0.0000000030
|  7> *
|  8>
|  9>                          ****END OF INPUT****

CARTESIAN COORDINATES (ANGSTROEM)
---------------------------------
  C      0.000001    0.000000    0.000000
  O      0.559769   -0.000000   -0.000000
  O     -0.559769   -0.000000   -0.000000

 Total Charge           Charge          ....    0
 Multiplicity           Mult            ....    1
 Number of Electrons    NEL             ....   22
 Basis Dimension        Dim             ....   42

ORBITAL ENERGIES
----------------

  NO   OCC          E(Eh)            E(eV)
   0   2.0000     -19.303415      -525.2726
   1   2.0000     -19.301821      -525.2293
   2   2.0000     -11.090273      -301.7817
   3   2.0000      -1.221597       -33.2414
   4   2.0000      -1.170350       -31.8469
   5   2.0000      -1.100923       -29.9576
   6   2.0000      -1.100923       -29.9576
   7   2.0000      -0.527851       -14.3635
   8   2.0000      -0.374855       -10.2003
   9   2.0000      -0.374855       -10.2003
  10   2.0000      -0.286981        -7.8092
  11   0.0000       0.154407         4.2016
  12   0.0000       0.206238         5.6120
  13   0.0000       0.206238         5.6120
  14   0.0000       0.307795         8.3755
  15   0.0000       0.759499        20.6670

MULLIKEN ATOMIC CHARGES
-----------------------
   0 C :    0.113783
   1 O :   -0.056886
   2 O :   -0.056897
Sum of atomic charges:    0.0000000

LOEWDIN ATOMIC CHARGES
----------------------
   0 C :   -0.874875
   1 O :    0.437439
   2 O :    0.437436

  Mayer bond orders larger than 0.100000
B(  0-C ,  1-O ) :   1.4741 B(  0-C ,  2-O ) :   1.4741 B(  1-O ,  2-O ) :   1.8219

FINAL SINGLE POINT ENERGY      -180.228112710944

DIPOLE MOMENT
-------------

Method             : SCF
Type of density    : Electron Density
Multiplicity       :   1
Irrep              :   0
Energy             :  -180.2281127109442878 Eh
Relativity type    :
Basis              : AO
                                X                 Y                 Z
Electronic contribution:      0.000005627       0.000000054       0.000000022
Nuclear contribution   :     -0.000000008      -0.000000000      -0.000000000
                        -----------------------------------------
Total Dipole Moment    :      0.000005619       0.000000054       0.000000022
                        -----------------------------------------
Magnitude (a.u.)       :      0.000005619
Magnitude (Debye)      :      0.000014283

Rotational constants in cm-1:             0.000000             1.681343             1.681343
Rotational constants in MHz :             0.000000         50405.400523         50405.400523

                             ****ORCA TERMINATED NORMALLY****
TOTAL RUN TIME: 0 days 0 hours 0 minutes 1 seconds 820 msec
