                         Program Version 6.0.1  -  RELEASE   -
|  1> ! B3LYP def2-SVP TightSCF
|  2>
|  3> * xyz 0 1
|  4>  C      0.0000028002     0.0000000123     0.0000000083
|  5>  O      0.5145094314    -0.0000000179    -0.0000000111
|  6>  O     -0.5145107630    -0.0000000039    -0.0000000048
|  7> *
|  8>
|  9>                          ****END OF INPUT****

CARTESIAN COORDINATES (ANGSTROEM)
---------------------------------
  C      0.000003    0.000000    0.000000
  O      0.514509   -0.000000   -0.000000
  O     -0.514511   -0.000000   -0.000000

 Total Charge           Charge          ....    0
 Multiplicity           Mult            ....    1
 Number of Electrons    NEL             ....   22
 Basis Dimension        Dim             ....   42

ORBITAL ENERGIES
----------------

  NO   OCC          E(Eh)            E(eV)
   0   2.0000     -19.435861      -528.8767
   1   2.0000     -19.430617      -528.7340
   2   2.0000     -11.500879      -312.9548
   3   2.0000      -1.237117       -33.6637
   4   2.0000      -1.237117       -33.6637
   5   2.0000      -1.172261       -31.8988
   6   2.0000      -1.129876       -30.7455
   7   2.0000      -0.537562       -14.6278
   8   2.0000      -0.380350       -10.3498
   9   2.0000      -0.380350       -10.3498
  10   2.0000      -0.217481        -5.9180
  11   0.0000       0.151728         4.1287
  12   0.0000       0.189245         5.1496
  13   0.0000       0.189245         5.1496
  14   0.0000       0.298906         8.1336
  15   0.0000       0.776579        21.1318

MULLIKEN ATOMIC CHARGES
-----------------------
   0 C :    0.162725
   1 O :   -0.081346
   2 O :   -0.081379
Sum of atomic charges:    0.0000000

LOEWDIN ATOMIC CHARGES
----------------------
   0 C :   -0.891250
   1 O :    0.445630
   2 O :    0.445620

  Mayer bond orders larger than 0.100000
B(  0-C ,  1-O ) :   1.1188 B(  0-C ,  2-O ) :   1.1187 B(  1-O ,  2-O ) :   2.2807

FINAL SINGLE POINT ENERGY      -177.391034006718

DIPOLE MOMENT
-------------

Method             : SCF
Type of density    : Electron Density
Multiplicity       :   1
Irrep              :   0
Energy             :  -177.3910340067180584 Eh
Relativity type    :
Basis              : AO
                                X                 Y                 Z
Electronic contribution:      0.000015512       0.000000072       0.000000052
Nuclear contribution   :     -0.000000028      -0.000000000      -0.000000000
                        -----------------------------------------
Total Dipole Moment    :      0.000015484       0.000000072       0.000000052
                        -----------------------------------------
Magnitude (a.u.)       :      0.000015484
Magnitude (Debye)      :      0.000039358

Rotational constants in cm-1:             0.000000             1.990152             1.990152
Rotational constants in MHz :             0.000000         59663.258082         59663.258082

                             ****ORCA TERMINATED NORMALLY****
TOTAL RUN TIME: 0 days 0 hours 0 minutes 2 seconds 12 msec
