                         Program Version 6.0.1  -  RELEASE   -
|  1> ! B3LYP def2-SVP TightSCF Freq
|  2> %output
|  3>   PrintLevel 5
|  4> end
|  5> * xyz 0 1
|  6>    C          0.0148869341          0.0000000191          0.0000000014
|  7>    O          0.6107517201         -0.0000000092         -0.0000000006
|  8>    O         -0.6204347838         -0.0000000100         -0.0000000008
|  9> *
| 10> %elprop
| 11>  Polar 1
| 12> end
| 13>
| 14>                          ****END OF INPUT****

CARTESIAN COORDINATES (ANGSTROEM)
---------------------------------
  C      0.014887    0.000000    0.000000
  O      0.610752   -0.000000   -0.000000
  O     -0.620435   -0.000000   -0.000000

 Total Charge           Charge          ....    0
 Multiplicity           Mult            ....    1
 Number of Electrons    NEL             ....   22
 Basis Dimension        Dim             ....   42

ORBITAL ENERGIES
----------------

  NO   OCC          E(Eh)            E(eV)
   0   2.0000     -19.252218      -523.8795
   1   2.0000     -19.162200      -521.4300
   2   2.0000     -10.748583      -292.4838
   3   2.0000      -1.281600       -34.8741
   4   2.0000      -1.187409       -32.3110
   5   2.0000      -0.974421       -26.5153
   6   2.0000      -0.974421       -26.5153
   7   2.0000      -0.518669       -14.1137
   8   2.0000      -0.371618       -10.1122
   9   2.0000      -0.371618       -10.1122
  10   2.0000      -0.355019        -9.6606
  11   0.0000       0.152460         4.1487
  12   0.0000       0.225825         6.1450
  13   0.0000       0.225825         6.1450
  14   0.0000       0.315847         8.5946
  15   0.0000       0.729873        19.8608

------------------
MOLECULAR ORBITALS (RHF, ROHF)
------------------
                      0         1         2         3         4         5
                 -19.25222 -19.16220 -10.74858  -1.28160  -1.18741  -0.97442
                   2.00000   2.00000   2.00000   2.00000   2.00000   2.00000
                  --------  --------  --------  --------  --------  --------
  0C   1s         0.003165 -0.001696  0.971503  0.068851  0.369621  0.000000
  0C   2s        -0.027436  0.027803 -0.095957  0.145745 -0.008906  0.000000
  0C   3s         0.001092 -0.003670 -0.008287 -0.012371 -0.053777  0.000000
  0C   1pz        0.000000 -0.000000 -0.000000 -0.000000 -0.000000  0.120184
  0C   1px       -0.001862 -0.007070  0.009673  0.799069 -0.179929  0.000000
  0C   1py        0.000000  0.000000 -0.000000  0.000000  0.000000 -0.503802
  0C   2pz       -0.000000  0.000000 -0.000000 -0.000000 -0.000000  0.029423
  0C   2px        0.012691  0.013176  0.000032  0.066869 -0.015380 -0.000000
  0C   2py       -0.000000 -0.000000 -0.000000  0.000000  0.000000 -0.123338
  0C   1dz2      -0.003844  0.001927  0.006840 -0.029433 -0.043328 -0.000000
  0C   1dxz      -0.000000 -0.000000 -0.000000 -0.000000  0.000000 -0.002056
  0C   1dyz       0.000000 -0.000000 -0.000000 -0.000000 -0.000000 -0.000000
  0C   1dx2y2     0.006659 -0.003337 -0.011847  0.050980  0.075047  0.000000
  0C   1dxy      -0.000000  0.000000 -0.000000 -0.000000  0.000000  0.008618
  1O   1s        -0.985732 -0.001614  0.034681  0.193142 -0.256513 -0.000000
  1O   2s         0.046272  0.006719  0.049811 -0.027711 -0.529561 -0.000000
  1O   3s        -0.019670 -0.025893  0.022555 -0.277142 -0.112076 -0.000000
  1O   1pz        0.000000  0.000000  0.000000 -0.000000 -0.000000  0.093751
  1O   1px       -0.013956 -0.000921 -0.035241 -0.208924  0.185633 -0.000000
  1O   1py        0.000000 -0.000000  0.000000  0.000000  0.000000 -0.392996
  1O   2pz       -0.000000  0.000000  0.000000 -0.000000 -0.000000 -0.005575
  1O   2px       -0.004360  0.005929 -0.009607  0.142999  0.005753  0.000000
  1O   2py        0.000000 -0.000000  0.000000 -0.000000 -0.000000  0.023369
  1O   1dz2      -0.002803 -0.001025 -0.004026 -0.031269 -0.005161 -0.000000
  1O   1dxz      -0.000000 -0.000000 -0.000000  0.000000  0.000000 -0.011309
  1O   1dyz      -0.000000  0.000000  0.000000 -0.000000 -0.000000  0.000000
  1O   1dx2y2     0.004854  0.001775  0.006972  0.054160  0.008938  0.000000
  1O   1dxy      -0.000000  0.000000 -0.000000 -0.000000 -0.000000  0.047405
  2O   1s        -0.001660  0.986141  0.024866 -0.271354 -0.141528 -0.000000
  2O   2s        -0.008024 -0.052521  0.054749 -0.337415 -0.433739 -0.000000
  2O   3s         0.029086  0.023361  0.029250  0.172728 -0.198221 -0.000000
  2O   1pz       -0.000000 -0.000000  0.000000 -0.000000 -0.000000  0.075671
  2O   1px       -0.000553 -0.013111  0.033794 -0.303665 -0.103522 -0.000000
  2O   1py       -0.000000 -0.000000  0.000000 -0.000000  0.000000 -0.317207
  2O   2pz        0.000000 -0.000000  0.000000  0.000000  0.000000 -0.008192
  2O   2px        0.007677 -0.003649  0.014626  0.103586 -0.069232 -0.000000
  2O   2py        0.000000  0.000000  0.000000 -0.000000 -0.000000  0.034342
  2O   1dz2       0.000880  0.002544 -0.003425  0.028096 -0.011995 -0.000000
  2O   1dxz      -0.000000 -0.000000  0.000000 -0.000000  0.000000  0.007685
  2O   1dyz      -0.000000  0.000000  0.000000  0.000000 -0.000000  0.000000
  2O   1dx2y2    -0.001523 -0.004407  0.005933 -0.048664  0.020775  0.000000
  2O   1dxy      -0.000000 -0.000000  0.000000 -0.000000  0.000000 -0.032214
                      6         7         8         9        10        11
                  -0.97442  -0.51867  -0.37162  -0.37162  -0.35502   0.15246
                   2.00000   2.00000   2.00000   2.00000   2.00000   0.00000
                  --------  --------  --------  --------  --------  --------
  0C   1s         0.000000 -0.018513  0.000000 -0.000000 -0.286824  0.059580
  0C   2s         0.000000  0.067599  0.000000 -0.000000 -0.712149  0.711802
  0C   3s         0.000000  0.002951  0.000000 -0.000000 -0.244926  3.226615
  0C   1pz       -0.503802 -0.000000 -0.003471  0.019726  0.000000  0.000000
  0C   1px       -0.000000  0.397049  0.000000  0.000000  0.030119 -0.008343
  0C   1py       -0.120184  0.000000  0.019726  0.003471  0.000000 -0.000000
  0C   2pz       -0.123338 -0.000000 -0.002557  0.014531  0.000000  0.000000
  0C   2px        0.000000 -0.117106 -0.000000 -0.000000 -0.004376  0.056492
  0C   2py       -0.029423  0.000000  0.014531  0.002557  0.000000  0.000000
  0C   1dz2      -0.000000 -0.012255 -0.000000  0.000000  0.081254  0.043460
  0C   1dxz       0.008618 -0.000000  0.002509 -0.014257  0.000000  0.000000
  0C   1dyz       0.000000  0.000000  0.000000 -0.000000 -0.000000 -0.000000
  0C   1dx2y2     0.000000  0.021227  0.000000 -0.000000 -0.140736 -0.075275
  0C   1dxy       0.002056 -0.000000 -0.014257 -0.002509 -0.000000  0.000000
  1O   1s        -0.000000 -0.070864  0.000000 -0.000000 -0.051069 -0.089823
  1O   2s        -0.000000 -0.330056 -0.000000  0.000000  0.143220 -0.037802
  1O   3s        -0.000000 -0.356836 -0.000000 -0.000000  0.079660 -2.002970
  1O   1pz       -0.392996  0.000000  0.093630 -0.532055  0.000000  0.000000
  1O   1px       -0.000000 -0.426765  0.000000 -0.000000 -0.516412 -0.037121
  1O   1py       -0.093751  0.000000 -0.532055 -0.093630 -0.000000 -0.000000
  1O   2pz        0.023369  0.000000  0.057245 -0.325296  0.000000 -0.000000
  1O   2px        0.000000 -0.068089  0.000000 -0.000000 -0.405844  0.263252
  1O   2py        0.005575  0.000000 -0.325296 -0.057245 -0.000000 -0.000000
  1O   1dz2      -0.000000 -0.023876 -0.000000 -0.000000  0.004957  0.009992
  1O   1dxz       0.047405 -0.000000 -0.009390  0.053360 -0.000000 -0.000000
  1O   1dyz      -0.000000  0.000000  0.000000 -0.000000 -0.000000 -0.000000
  1O   1dx2y2     0.000000  0.041355  0.000000  0.000000 -0.008586 -0.017307
  1O   1dxy       0.011309 -0.000000  0.053360  0.009390  0.000000  0.000000
  2O   1s        -0.000000  0.091927 -0.000000 -0.000000 -0.060231 -0.084872
  2O   2s        -0.000000  0.270636 -0.000000  0.000000  0.138123 -0.035767
  2O   3s        -0.000000  0.374463 -0.000000  0.000000  0.054162 -1.806415
  2O   1pz       -0.317207 -0.000000 -0.099590  0.565921 -0.000000 -0.000000
  2O   1px        0.000000 -0.431079 -0.000000  0.000000  0.495015  0.035187
  2O   1py       -0.075671 -0.000000  0.565921  0.099590  0.000000 -0.000000
  2O   2pz        0.034342 -0.000000 -0.061047  0.346901 -0.000000 -0.000000
  2O   2px       -0.000000 -0.074559 -0.000000  0.000000  0.394446 -0.250457
  2O   2py        0.008192 -0.000000  0.346901  0.061047  0.000000 -0.000000
  2O   1dz2      -0.000000  0.025375 -0.000000  0.000000  0.002480  0.011252
  2O   1dxz      -0.032214 -0.000000 -0.009975  0.056683 -0.000000 -0.000000
  2O   1dyz      -0.000000 -0.000000 -0.000000  0.000000 -0.000000 -0.000000
  2O   1dx2y2     0.000000 -0.043950 -0.000000 -0.000000 -0.004295 -0.019489
  2O   1dxy      -0.007685 -0.000000  0.056683  0.009975  0.000000 -0.000000
                     12        13        14        15        16        17
                   0.22582   0.22582   0.31585   0.72987   0.79346   0.79346
                   0.00000   0.00000   0.00000   0.00000   0.00000   0.00000
                  --------  --------  --------  --------  --------  --------
  0C   1s        -0.000000  0.000000 -0.009825 -0.252541  0.000000 -0.000000
  0C   2s        -0.000000  0.000000 -0.048801  4.846689 -0.000002  0.000000
  0C   3s         0.000000 -0.000000 -0.113404  1.679385 -0.000000  0.000000
  0C   1pz       -0.116333 -0.200889 -0.000000 -0.000000 -0.044351  0.925053
  0C   1px       -0.000000  0.000000  0.099651  0.048893 -0.000000  0.000000
  0C   1py        0.200889 -0.116333  0.000000 -0.000000 -0.925053 -0.044351
  0C   2pz        0.849186  1.466417  0.000000 -0.000000 -0.062805  1.309971
  0C   2px       -0.000000  0.000000  3.241587 -0.068787  0.000000 -0.000000
  0C   2py       -1.466417  0.849186 -0.000000 -0.000001 -1.309971 -0.062805
  0C   1dz2       0.000000 -0.000000 -0.001280 -0.050416  0.000000  0.000000
  0C   1dxz       0.002402  0.004148  0.000000 -0.000000 -0.011566  0.241232
  0C   1dyz       0.000000  0.000000  0.000000  0.000000 -0.000000  0.000000
  0C   1dx2y2    -0.000000  0.000000  0.002218  0.087323 -0.000000  0.000000
  0C   1dxy      -0.004148  0.002402  0.000000 -0.000000 -0.241232 -0.011566
  1O   1s        -0.000000  0.000000 -0.058642  0.022571  0.000000  0.000000
  1O   2s         0.000000 -0.000000 -0.001403 -0.277456  0.000000 -0.000000
  1O   3s        -0.000000  0.000000 -2.781272 -2.829386  0.000002 -0.000000
  1O   1pz       -0.060194 -0.103945 -0.000000  0.000000 -0.002808  0.058564
  1O   1px       -0.000000  0.000000 -0.163317 -0.296455  0.000000 -0.000000
  1O   1py        0.103945 -0.060194 -0.000000  0.000000 -0.058564 -0.002808
  1O   2pz       -0.217121 -0.374935 -0.000000  0.000000  0.090353 -1.884554
  1O   2px       -0.000000  0.000000 -0.068644  1.830995 -0.000001  0.000000
  1O   2py        0.374935 -0.217121 -0.000000  0.000000  1.884554  0.090353
  1O   1dz2       0.000000 -0.000000  0.001239  0.028832 -0.000000  0.000000
  1O   1dxz       0.016267  0.028090  0.000000  0.000000  0.001380 -0.028776
  1O   1dyz      -0.000000 -0.000000  0.000000  0.000000 -0.000000  0.000000
  1O   1dx2y2    -0.000000  0.000000 -0.002146 -0.049938  0.000000 -0.000000
  1O   1dxy      -0.028090  0.016267  0.000000  0.000000  0.028776  0.001380
  2O   1s        -0.000000  0.000000  0.066175  0.013571 -0.000000  0.000000
  2O   2s         0.000000 -0.000000 -0.000254 -0.213837  0.000000 -0.000000
  2O   3s        -0.000000  0.000000  2.965015 -2.455979  0.000000 -0.000000
  2O   1pz       -0.061116 -0.105537  0.000000  0.000000  0.016989 -0.354343
  2O   1px        0.000000 -0.000000 -0.143811  0.309322 -0.000000  0.000000
  2O   1py        0.105537 -0.061116  0.000000  0.000000  0.354343  0.016989
  2O   2pz       -0.225616 -0.389605  0.000000  0.000000  0.021746 -0.453569
  2O   2px        0.000000 -0.000000  0.027450 -1.623205  0.000000 -0.000000
  2O   2py        0.389605 -0.225616  0.000000  0.000000  0.453569  0.021746
  2O   1dz2       0.000000 -0.000000 -0.001966  0.023935 -0.000000  0.000000
  2O   1dxz      -0.014205 -0.024531  0.000000 -0.000000 -0.004281  0.089289
  2O   1dyz      -0.000000 -0.000000 -0.000000  0.000000 -0.000000  0.000000
  2O   1dx2y2    -0.000000  0.000000  0.003405 -0.041457  0.000000 -0.000000
  2O   1dxy       0.024531 -0.014205  0.000000 -0.000000 -0.089289 -0.004281
                     18        19        20        21        22        23
                   0.81601   0.81601   0.84088   1.22356   1.34076   1.34076
                   0.00000   0.00000   0.00000   0.00000   0.00000   0.00000
                  --------  --------  --------  --------  --------  --------
  0C   1s         0.000000  0.000000  0.000527 -0.046654  0.000000 -0.000000
  0C   2s        -0.000001 -0.000001 -0.030692  0.249811 -0.000000  0.000000
  0C   3s        -0.000000 -0.000000 -0.003762  3.223823 -0.000000  0.000000
  0C   1pz        0.387653 -0.558242  0.000000 -0.000000  0.177656  0.242381
  0C   1px        0.000000  0.000000  0.565417 -0.039080  0.000000 -0.000000
  0C   1py       -0.558242 -0.387653  0.000000 -0.000000 -0.242381  0.177656
  0C   2pz        0.509830 -0.734184  0.000000  0.000000 -0.914070 -1.247087
  0C   2px       -0.000000 -0.000000 -0.944921  0.051530  0.000000 -0.000000
  0C   2py       -0.734184 -0.509830  0.000000  0.000000  1.247087 -0.914070
  0C   1dz2       0.000000  0.000000  0.010232  0.270619  0.000000 -0.000000
  0C   1dxz      -0.206651  0.297589 -0.000000 -0.000000 -0.005913 -0.008067
  0C   1dyz       0.000000 -0.000000 -0.000000  0.000000  0.000000  0.000000
  0C   1dx2y2    -0.000000 -0.000000 -0.017723 -0.468725  0.000000 -0.000000
  0C   1dxy       0.297589  0.206651 -0.000000  0.000000  0.008067 -0.005913
  1O   1s         0.000000  0.000000  0.013850  0.214476  0.000000  0.000000
  1O   2s         0.000000  0.000000  0.078163  2.168453 -0.000000  0.000000
  1O   3s        -0.000001 -0.000001 -2.665321 -3.513358  0.000000 -0.000000
  1O   1pz       -0.224086  0.322697 -0.000000  0.000000 -0.465347 -0.634883
  1O   1px       -0.000000 -0.000000 -0.125404  0.134572 -0.000000  0.000000
  1O   1py        0.322697  0.224086 -0.000000  0.000000  0.634883 -0.465347
  1O   2pz        0.045042 -0.064862  0.000000 -0.000000  0.727226  0.992171
  1O   2px        0.000001  0.000001  2.731698  0.168333 -0.000000  0.000000
  1O   2py       -0.064862 -0.045042  0.000000 -0.000000 -0.992171  0.727226
  1O   1dz2       0.000000  0.000000  0.008009  0.018044  0.000000 -0.000000
  1O   1dxz      -0.052415  0.075480 -0.000000  0.000000 -0.073401 -0.100143
  1O   1dyz       0.000000 -0.000000 -0.000000  0.000000  0.000000  0.000000
  1O   1dx2y2     0.000000  0.000000 -0.013872 -0.031253  0.000000 -0.000000
  1O   1dxy       0.075480  0.052415 -0.000000  0.000000  0.100143 -0.073401
  2O   1s         0.000000  0.000000 -0.005402  0.210495 -0.000000  0.000000
  2O   2s         0.000000  0.000000 -0.033704  2.057027 -0.000000  0.000000
  2O   3s         0.000002  0.000001  2.659457 -3.224506  0.000000 -0.000000
  2O   1pz        0.106228 -0.152975  0.000000  0.000000 -0.477486 -0.651445
  2O   1px       -0.000000 -0.000000 -0.112591 -0.102004  0.000000 -0.000000
  2O   1py       -0.152975 -0.106228  0.000000  0.000000  0.651445 -0.477486
  2O   2pz       -0.990221  1.425973 -0.000000 -0.000000  0.718133  0.979766
  2O   2px        0.000001  0.000001  2.741109 -0.162799  0.000000 -0.000000
  2O   2py        1.425973  0.990221 -0.000001 -0.000000 -0.979766  0.718133
  2O   1dz2      -0.000000 -0.000000 -0.007807  0.014758  0.000000 -0.000000
  2O   1dxz      -0.000543  0.000782 -0.000000 -0.000000  0.068991  0.094127
  2O   1dyz      -0.000000  0.000000  0.000000  0.000000  0.000000  0.000000
  2O   1dx2y2     0.000000  0.000000  0.013522 -0.025561  0.000000 -0.000000
  2O   1dxy       0.000782  0.000543 -0.000000  0.000000 -0.094127  0.068991
                     24        25        26        27        28        29
                   1.36423   1.36423   1.59261   2.03022   2.56716   2.56717
                   0.00000   0.00000   0.00000   0.00000   0.00000   0.00000
                  --------  --------  --------  --------  --------  --------
  0C   1s        -0.000000  0.000000 -0.005565  0.032835  0.000000 -0.000000
  0C   2s         0.000000 -0.000000  0.008314 -6.737094  0.000000 -0.000000
  0C   3s         0.000000 -0.000000  0.062375 -1.670393  0.000000 -0.000000
  0C   1pz        0.000000 -0.000000  0.000000  0.000000  0.000000 -0.000000
  0C   1px       -0.000000  0.000000 -0.089199  0.033898  0.000000 -0.000000
  0C   1py        0.000000  0.000000 -0.000000  0.000000 -0.000000 -0.000000
  0C   2pz       -0.000001  0.000000 -0.000000 -0.000000  0.000000 -0.000000
  0C   2px        0.000000 -0.000000 -3.287197  0.056667  0.000000 -0.000000
  0C   2py       -0.000000 -0.000001  0.000000 -0.000000 -0.000000 -0.000000
  0C   1dz2       0.000000  0.741870  0.000562 -0.316471 -0.018408  0.000000
  0C   1dxz      -0.000000  0.000000 -0.000000 -0.000000  0.000000 -0.000000
  0C   1dyz      -0.856642  0.000000 -0.000000 -0.000000  0.000000  0.021253
  0C   1dx2y2     0.000000  0.428319 -0.000973  0.548144 -0.010628 -0.000000
  0C   1dxy      -0.000000 -0.000000 -0.000000 -0.000000 -0.000000 -0.000000
  1O   1s         0.000000 -0.000000 -0.206977  0.167484  0.000000  0.000000
  1O   2s         0.000000 -0.000000 -1.509343  0.565941 -0.000000  0.000000
  1O   3s        -0.000000  0.000000  5.165838  3.616745 -0.000000  0.000000
  1O   1pz       -0.000000  0.000000 -0.000000 -0.000000 -0.000000  0.000000
  1O   1px        0.000000 -0.000000 -0.401185 -0.772335  0.000000 -0.000000
  1O   1py       -0.000000 -0.000000  0.000000 -0.000000  0.000000  0.000000
  1O   2pz        0.000001 -0.000000  0.000000  0.000000 -0.000000  0.000000
  1O   2px        0.000000 -0.000000 -0.016118 -1.430104  0.000000 -0.000000
  1O   2py        0.000000  0.000001  0.000000  0.000000  0.000000  0.000000
  1O   1dz2       0.000000  0.117894  0.009781 -0.032647  0.622136 -0.000000
  1O   1dxz      -0.000000  0.000000 -0.000000 -0.000000 -0.000000  0.000000
  1O   1dyz      -0.136127  0.000000  0.000000  0.000000 -0.000000 -0.718379
  1O   1dx2y2     0.000000  0.068066 -0.016941  0.056546  0.359190 -0.000000
  1O   1dxy      -0.000000 -0.000000 -0.000000 -0.000000  0.000000  0.000000
  2O   1s         0.000000 -0.000000  0.221000  0.159304 -0.000000  0.000000
  2O   2s         0.000000 -0.000000  1.612417  0.504478 -0.000000  0.000000
  2O   3s        -0.000000  0.000000 -5.320412  3.185479  0.000000 -0.000000
  2O   1pz       -0.000000  0.000000 -0.000000 -0.000000  0.000000 -0.000000
  2O   1px       -0.000000  0.000000 -0.364895  0.778902 -0.000000  0.000000
  2O   1py       -0.000000 -0.000000 -0.000000 -0.000000 -0.000000 -0.000000
  2O   2pz        0.000001 -0.000000 -0.000000  0.000000 -0.000000 -0.000000
  2O   2px       -0.000000  0.000000 -0.154427  1.154257 -0.000000  0.000000
  2O   2py        0.000000  0.000001 -0.000000  0.000000 -0.000000  0.000000
  2O   1dz2       0.000000  0.118534 -0.013258 -0.010119 -0.627522  0.000000
  2O   1dxz       0.000000 -0.000000  0.000000  0.000000 -0.000000  0.000000
  2O   1dyz      -0.136868  0.000000 -0.000000 -0.000000  0.000000  0.724601
  2O   1dx2y2     0.000000  0.068436  0.022964  0.017526 -0.362300  0.000000
  2O   1dxy       0.000000  0.000000 -0.000000  0.000000  0.000000  0.000000
                     30        31        32        33        34        35
                   2.96061   2.96061   3.24293   3.35001   3.56454   3.56454
                   0.00000   0.00000   0.00000   0.00000   0.00000   0.00000
                  --------  --------  --------  --------  --------  --------
  0C   1s         0.000000 -0.000000  0.341570  0.282838 -0.000000  0.000000
  0C   2s         0.000000 -0.000000  7.896966  5.060392  0.000000 -0.000000
  0C   3s         0.000000 -0.000000  1.082906  0.626523 -0.000000  0.000000
  0C   1pz        0.000325  0.002883 -0.000000 -0.000000 -0.000000  0.000000
  0C   1px        0.000000 -0.000000  0.122179 -0.062909  0.000000 -0.000000
  0C   1py       -0.002883  0.000325 -0.000000 -0.000000  0.000000  0.000000
  0C   2pz        0.001359  0.012060  0.000000  0.000000 -0.000000  0.000000
  0C   2px       -0.000000  0.000000 -0.084574  0.039001  0.000000 -0.000000
  0C   2py       -0.012060  0.001359  0.000000  0.000000  0.000000  0.000000
  0C   1dz2       0.000000 -0.000000 -0.593891 -0.422768 -0.910268 -0.000000
  0C   1dxz      -0.042660 -0.378634 -0.000000  0.000000  0.000000 -0.000000
  0C   1dyz      -0.000000 -0.000000 -0.000000  0.000000 -0.000000  1.051084
  0C   1dx2y2    -0.000000  0.000000  1.028649  0.732256 -0.525544 -0.000000
  0C   1dxy       0.378634 -0.042660 -0.000000  0.000000 -0.000000 -0.000000
  1O   1s        -0.000000  0.000000 -0.007296  0.008539 -0.000000  0.000000
  1O   2s        -0.000000  0.000000 -2.547508 -1.189044 -0.000000  0.000000
  1O   3s         0.000000 -0.000000 -1.394502 -3.667391 -0.000000  0.000000
  1O   1pz        0.037100  0.329278 -0.000000 -0.000000 -0.000000  0.000000
  1O   1px        0.000000 -0.000000  0.532973  0.414960  0.000000 -0.000000
  1O   1py       -0.329278  0.037100 -0.000000 -0.000000  0.000000  0.000000
  1O   2pz       -0.027228 -0.241667 -0.000000 -0.000000  0.000000 -0.000000
  1O   2px       -0.000000  0.000000  0.417128  2.049826  0.000000 -0.000000
  1O   2py        0.241667 -0.027228 -0.000000 -0.000000 -0.000000 -0.000000
  1O   1dz2       0.000000  0.000000  0.010427  0.614101  0.824804  0.000000
  1O   1dxz       0.077836  0.690835  0.000000  0.000000 -0.000000  0.000000
  1O   1dyz       0.000000  0.000000  0.000000 -0.000000  0.000000 -0.952403
  1O   1dx2y2     0.000000 -0.000000 -0.018061 -1.063654  0.476201  0.000000
  1O   1dxy      -0.690835  0.077836  0.000000  0.000000  0.000000  0.000000
  2O   1s         0.000000 -0.000000  0.012263 -0.002313 -0.000000  0.000000
  2O   2s         0.000000 -0.000000 -1.784040 -1.774483 -0.000000  0.000000
  2O   3s        -0.000000  0.000000 -3.974723  0.397236  0.000000 -0.000000
  2O   1pz       -0.035458 -0.314712 -0.000000  0.000000 -0.000000  0.000000
  2O   1px        0.000000 -0.000000 -0.612297 -0.333291 -0.000000  0.000000
  2O   1py        0.314712 -0.035458 -0.000000  0.000000  0.000000  0.000000
  2O   2pz        0.024729  0.219483 -0.000000 -0.000000  0.000000 -0.000000
  2O   2px       -0.000000  0.000000 -2.078758  0.489512 -0.000000  0.000000
  2O   2py       -0.219483  0.024729 -0.000000 -0.000000 -0.000000 -0.000000
  2O   1dz2      -0.000000 -0.000000  0.571558 -0.208801  0.786786  0.000000
  2O   1dxz       0.076921  0.682715 -0.000000 -0.000000  0.000000 -0.000000
  2O   1dyz      -0.000000 -0.000000  0.000000 -0.000000  0.000000 -0.908502
  2O   1dx2y2    -0.000000  0.000000 -0.989968  0.361654  0.454251  0.000000
  2O   1dxy      -0.682715  0.076921 -0.000000 -0.000000 -0.000000 -0.000000
                     36        37        38        39        40        41
                   4.15350   4.15350   4.49409   4.49409   6.37250   7.15180
                   0.00000   0.00000   0.00000   0.00000   0.00000   0.00000
                  --------  --------  --------  --------  --------  --------
  0C   1s         0.000000 -0.000000  0.000000  0.000000 -0.624303 -0.080869
  0C   2s        -0.000000  0.000000 -0.000000 -0.000000 20.600495  5.906988
  0C   3s        -0.000000 -0.000000  0.000000  0.000000  0.393227  0.234682
  0C   1pz        0.005458 -0.105578 -0.472683  2.483687 -0.000000 -0.000000
  0C   1px        0.000000  0.000000 -0.000000 -0.000000 -0.570099  5.686832
  0C   1py        0.105578  0.005458 -2.483687 -0.472683 -0.000000 -0.000000
  0C   2pz        0.001144 -0.022122 -0.144709  0.760365  0.000000  0.000000
  0C   2px        0.000000 -0.000000 -0.000000 -0.000000  0.035146  0.063047
  0C   2py        0.022122  0.001144 -0.760365 -0.144709  0.000000  0.000000
  0C   1dz2       0.000000 -0.000000  0.000000 -0.000000 -3.149752 -0.737825
  0C   1dxz       0.139085 -2.690244 -0.008982  0.047197  0.000000 -0.000000
  0C   1dyz       0.000000 -0.000000  0.000000 -0.000000  0.000000  0.000000
  0C   1dx2y2    -0.000000  0.000000 -0.000000 -0.000000  5.455530  1.277950
  0C   1dxy       2.690244  0.139085 -0.047197 -0.008982  0.000000 -0.000000
  1O   1s        -0.000000  0.000000 -0.000000 -0.000000  0.183804 -0.124568
  1O   2s         0.000000 -0.000000  0.000000  0.000000 -9.223754 -6.331420
  1O   3s        -0.000000  0.000000 -0.000000  0.000000 -3.547207 -3.566584
  1O   1pz       -0.080767  1.562231  0.112964 -0.593565 -0.000000 -0.000000
  1O   1px       -0.000000  0.000000  0.000000  0.000000  1.210652  2.141905
  1O   1py       -1.562231 -0.080767  0.593565  0.112964 -0.000000 -0.000000
  1O   2pz       -0.034449  0.666333  0.207507 -1.090332 -0.000000 -0.000000
  1O   2px        0.000000  0.000000 -0.000000 -0.000000  1.684935  1.811914
  1O   2py       -0.666333 -0.034449  1.090332  0.207507 -0.000000 -0.000000
  1O   1dz2       0.000000  0.000000  0.000000  0.000000 -0.341756  0.171779
  1O   1dxz       0.045357 -0.877307 -0.225780  1.186349 -0.000000  0.000000
  1O   1dyz      -0.000000  0.000000 -0.000000  0.000000 -0.000000 -0.000000
  1O   1dx2y2     0.000000  0.000000 -0.000000 -0.000000  0.591938 -0.297531
  1O   1dxy       0.877307  0.045357 -1.186349 -0.225780 -0.000000  0.000000
  2O   1s         0.000000 -0.000000 -0.000000 -0.000000  0.080132  0.213497
  2O   2s        -0.000000 -0.000000  0.000000  0.000000 -9.806476  1.306865
  2O   3s         0.000000 -0.000000 -0.000000 -0.000000 -3.620593  1.137545
  2O   1pz        0.075209 -1.454735  0.087708 -0.460856 -0.000000 -0.000000
  2O   1px       -0.000000  0.000000 -0.000000 -0.000000 -2.105882  1.287237
  2O   1py        1.454735  0.075209  0.460856  0.087708 -0.000000 -0.000000
  2O   2pz        0.031460 -0.608512  0.189463 -0.995522 -0.000000 -0.000000
  2O   2px        0.000000 -0.000000 -0.000000 -0.000000 -1.972038  0.713059
  2O   2py        0.608512  0.031460  0.995522  0.189463 -0.000000 -0.000000
  2O   1dz2      -0.000000 -0.000000  0.000000  0.000000 -0.233647 -0.362467
  2O   1dxz       0.051004 -0.986550  0.208234 -1.094152 -0.000000  0.000000
  2O   1dyz       0.000000 -0.000000 -0.000000  0.000000 -0.000000 -0.000000
  2O   1dx2y2    -0.000000 -0.000000 -0.000000 -0.000000  0.404688  0.627811
  2O   1dxy       0.986550  0.051004  1.094152  0.208234 -0.000000  0.000000

MULLIKEN ATOMIC CHARGES
-----------------------
   0 C :    0.109907
   1 O :    0.047122
   2 O :   -0.157029
Sum of atomic charges:    0.0000000

LOEWDIN ATOMIC CHARGES
----------------------
   0 C :   -0.819537
   1 O :    0.440887
   2 O :    0.378650

  Mayer bond orders larger than 0.100000
B(  0-C ,  1-O ) :   1.9034 B(  0-C ,  2-O ) :   1.7803 B(  1-O ,  2-O ) :   1.3378

FINAL SINGLE POINT ENERGY      -182.725089510887

DIPOLE MOMENT
-------------

Method             : SCF
Type of density    : Electron Density
Multiplicity       :   1
Irrep              :   0
Energy             :  -182.7250895108869884 Eh
Relativity type    :
Basis              : AO
                                X                 Y                 Z
Electronic contribution:      0.127497890       0.000000069       0.000000002
Nuclear contribution   :     -0.000159261      -0.000000000      -0.000000000
                        -----------------------------------------
Total Dipole Moment    :      0.127338629       0.000000069       0.000000002
                        -----------------------------------------
Magnitude (a.u.)       :      0.127338629
Magnitude (Debye)      :      0.323669072

VIBRATIONAL FREQUENCIES
-----------------------

Scaling factor for frequencies =  1.000000000  (already applied!)

     0:       0.00 cm**-1
     1:       0.00 cm**-1
     2:       0.00 cm**-1
     3:       0.00 cm**-1
     4:       0.00 cm**-1
     5:   -6585.30 cm**-1  ***imaginary mode***
     6:   -6585.30 cm**-1  ***imaginary mode***
     7:    7329.86 cm**-1
     8:   14131.63 cm**-1

IR SPECTRUM
-----------

 Mode   freq       eps      Int      T**2         TX        TY        TZ
       cm**-1   L/(mol*cm) km/mol    a.u.
----------------------------------------------------------------------------
  7:   7329.86   0.002258   11.41  0.000096  (-0.009805 -0.000000 -0.000000)
  8:  14131.63   0.251681  1271.89  0.005558  ( 0.074550  0.000000 -0.000000)

--------------------------
THERMOCHEMISTRY AT 298.15K
--------------------------

Temperature         ...   298.15 K
Pressure            ...     1.00 atm
Total Mass          ...    44.01 AMU
Quasi RRHO          ...     True
Cut-Off Frequency   ...     1.00 cm^-1
The molecule is recognized as being linear

Throughout the following assumptions are being made:
  (1) The electronic state is orbitally nondegenerate
  (2) There are no thermally accessible electronically excited states
  (3) Hindered rotations indicated by low frequency modes are not
      treated as such but are treated as vibrations and this may
      cause some error
  (4) All equations used are the standard statistical mechanics
      equations for an ideal gas
  (5) All vibrations are strictly harmonic

freq.    7329.86  E(vib)   ...       0.00
freq.   14131.63  E(vib)   ...       0.00

------------
INNER ENERGY
------------

The inner energy is: U= E(el) + E(ZPE) + E(vib) + E(rot) + E(trans)
    E(el)   - is the total energy from the electronic structure calculation
              = E(kin-el) + E(nuc-el) + E(el-el) + E(nuc-nuc)
    E(ZPE)  - the the zero temperature vibrational energy from the frequency calculation
    E(vib)  - the the finite temperature correction to E(ZPE) due to population
              of excited vibrational states
    E(rot)  - is the rotational thermal energy
    E(trans)- is the translational thermal energy

Summary of contributions to the inner energy U:
Electronic energy                ...   -182.72508951 Eh
Zero point energy                ...      0.04889288 Eh      30.68 kcal/mol
Thermal vibrational correction   ...      0.00000000 Eh       0.00 kcal/mol
Thermal rotational correction    ...      0.00094418 Eh       0.59 kcal/mol
Thermal translational correction ...      0.00141627 Eh       0.89 kcal/mol
-----------------------------------------------------------------------
Total thermal energy                   -182.67383618 Eh

Summary of corrections to the electronic energy:
(perhaps to be used in another calculation)
Total thermal correction                  0.00236045 Eh       1.48 kcal/mol
Non-thermal (ZPE) correction              0.04889288 Eh      30.68 kcal/mol
-----------------------------------------------------------------------
Total correction                          0.05125333 Eh      32.16 kcal/mol

--------
ENTHALPY
--------

The enthalpy is H = U + kB*T
                kB is Boltzmann's constant
Total thermal energy              ...   -182.67383618 Eh
Thermal Enthalpy correction       ...      0.00094421 Eh       0.59 kcal/mol
-----------------------------------------------------------------------
Total Enthalpy                    ...   -182.67289197 Eh

Note: Rotational entropy computed according to Herzberg
Infrared and Raman Spectra, Chapter V,1, Van Nostrand Reinhold, 1945
Point Group:  C(inf)v, Symmetry Number:   1
Rotational constants in cm-1:     0.000000     1.389839     1.389839

Vibrational entropy computed according to the QRRHO of S. Grimme
Chem.Eur.J. 2012 18 9955 using a reference frequency of 100.0 cm-1

-------
ENTROPY
-------

The entropy contributions are T*S = T*(S(el)+S(vib)+S(rot)+S(trans))
     S(el)   - electronic entropy
     S(vib)  - vibrational entropy
     S(rot)  - rotational entropy
     S(trans)- translational entropy
The entropies will be listed as multiplied by the temperature to get
units of energy

Electronic entropy                ...      0.00000000 Eh      0.00 kcal/mol
Vibrational entropy               ...     -0.00000000 Eh     -0.00 kcal/mol
Rotational entropy                ...      0.00566945 Eh      3.56 kcal/mol
Translational entropy             ...      0.01770880 Eh     11.11 kcal/mol
-----------------------------------------------------------------------
Final entropy term                ...      0.02337825 Eh     14.67 kcal/mol

-------------------
GIBBS FREE ENERGY
-------------------

The Gibbs free energy is G = H - T*S

Total enthalpy                    ...   -182.67289197 Eh
Total entropy correction          ...     -0.02337825 Eh    -14.67 kcal/mol
-----------------------------------------------------------------------
Final Gibbs free energy         ...   -182.69627022 Eh

For completeness - the Gibbs free energy minus the electronic energy
G-E(el)                           ...      0.02881929 Eh     18.08 kcal/mol

                             ****ORCA TERMINATED NORMALLY****
TOTAL RUN TIME: 0 days 0 hours 0 minutes 14 seconds 897 msec
