                         Program Version 6.0.1  -  RELEASE   -
|  1> ! B3LYP def2-SVP TightSCF
|  2>
|  3> * xyz 0 1
|  4>  C      0.0603245858     0.0000000186     0.0000000010
|  5>  O      0.5959744619    -0.0000000078    -0.0000000001
|  6>  O     -0.6352135061    -0.0000000110    -0.0000000009
|  7> *
|  8>
|  9>                          ****END OF INPUT****

CARTESIAN COORDINATES (ANGSTROEM)
---------------------------------
  C      0.060325    0.000000    0.000000
  O      0.595974   -0.000000   -0.000000
  O     -0.635214   -0.000000   -0.000000

 Total Charge           Charge          ....    0
 Multiplicity           Mult            ....    1
 Number of Electrons    NEL             ....   22
 Basis Dimension        Dim             ....   42

ORBITAL ENERGIES
----------------

  NO   OCC          E(Eh)            E(eV)
   0   2.0000     -19.459752      -529.5268
   1   2.0000     -19.074125      -519.0333
   2   2.0000     -10.885970      -296.2223
   3   2.0000      -1.301244       -35.4087
   4   2.0000      -1.137156       -30.9436
   5   2.0000      -1.026820       -27.9412
   6   2.0000      -1.026820       -27.9412
   7   2.0000      -0.504413       -13.7258
   8   2.0000      -0.363374        -9.8879
   9   2.0000      -0.363374        -9.8879
  10   2.0000      -0.334400        -9.0995
  11   0.0000       0.149064         4.0562
  12   0.0000       0.221658         6.0316
  13   0.0000       0.221658         6.0316
  14   0.0000       0.314607         8.5609
  15   0.0000       0.741229        20.1699

MULLIKEN ATOMIC CHARGES
-----------------------
   0 C :   -0.212038
   1 O :    0.519064
   2 O :   -0.307025
Sum of atomic charges:    0.0000000

LOEWDIN ATOMIC CHARGES
----------------------
   0 C :   -0.789176
   1 O :    0.514766
   2 O :    0.274410

  Mayer bond orders larger than 0.100000
B(  0-C ,  1-O ) :   2.1838 B(  0-C ,  2-O ) :   1.8171 B(  1-O ,  2-O ) :   1.1193

FINAL SINGLE POINT ENERGY      -182.013924581747

DIPOLE MOMENT
-------------

Method             : SCF
Type of density    : Electron Density
Multiplicity       :   1
Irrep              :   0
Energy             :  -182.0139245817473750 Eh
Relativity type    :
Basis              : AO
                                X                 Y                 Z
Electronic contribution:      0.488563316       0.000000064       0.000000008
Nuclear contribution   :     -0.000645359      -0.000000000      -0.000000000
                        -----------------------------------------
Total Dipole Moment    :      0.487917957       0.000000064       0.000000008
                        -----------------------------------------
Magnitude (a.u.)       :      0.487917957
Magnitude (Debye)      :      1.240188886

Rotational constants in cm-1:             0.000000             1.383856             1.383856
Rotational constants in MHz :             0.000000         41486.963841         41486.963841

                             ****ORCA TERMINATED NORMALLY****
TOTAL RUN TIME: 0 days 0 hours 0 minutes 1 seconds 926 msec
