                         Program Version 6.0.1  -  RELEASE   -
|  1> ! B3LYP def2-SVP TightSCF Freq
|  2> %output
|  3>   PrintLevel 5
|  4> end
|  5> * xyz 0 1
|  6>    C         -0.0000014011          0.0289427035         -0.0013879388
|  7>    O          0.6155937123         -0.0094134827          0.0004514195
|  8>    O         -0.6155923110         -0.0094129806          0.0004513972
|  9> *
| 10> %elprop
| 11>  Polar 1
| 12> end
| 13>
| 14>                          ****END OF INPUT****

CARTESIAN COORDINATES (ANGSTROEM)
---------------------------------
  C     -0.000001    0.028943   -0.001388
  O      0.615594   -0.009413    0.000451
  O     -0.615592   -0.009413    0.000451

 Total Charge           Charge          ....    0
 Multiplicity           Mult            ....    1
 Number of Electrons    NEL             ....   22
 Basis Dimension        Dim             ....   42

ORBITAL ENERGIES
----------------

  NO   OCC          E(Eh)            E(eV)
   0   2.0000     -19.201460      -522.4983
   1   2.0000     -19.201189      -522.4909
   2   2.0000     -10.733239      -292.0663
   3   2.0000      -1.279630       -34.8205
   4   2.0000      -1.195860       -32.5410
   5   2.0000      -0.969116       -26.3710
   6   2.0000      -0.967631       -26.3306
   7   2.0000      -0.519511       -14.1366
   8   2.0000      -0.371229       -10.1017
   9   2.0000      -0.367563       -10.0019
  10   2.0000      -0.357551        -9.7295
  11   0.0000       0.151882         4.1329
  12   0.0000       0.226179         6.1547
  13   0.0000       0.226882         6.1738
  14   0.0000       0.315726         8.5913
  15   0.0000       0.713294        19.4097

------------------
MOLECULAR ORBITALS (RHF, ROHF)
------------------
                      0         1         2         3         4         5
                 -19.20146 -19.20119 -10.73324  -1.27963  -1.19586  -0.96912
                   2.00000   2.00000   2.00000   2.00000   2.00000   2.00000
                  --------  --------  --------  --------  --------  --------
  0C   1s         0.003210  0.000056 -0.971634  0.000008 -0.376040 -0.000000
  0C   2s        -0.041688 -0.000731  0.094953  0.000015  0.000715 -0.000001
  0C   3s         0.003659  0.000064  0.007341 -0.000002  0.056543 -0.000000
  0C   1pz       -0.000056 -0.000001 -0.000005 -0.000000  0.002886 -0.517689
  0C   1px        0.000119 -0.006803  0.000001 -0.812778 -0.000021 -0.000000
  0C   1py        0.001176  0.000021  0.000103  0.000002 -0.060187 -0.024823
  0C   2pz       -0.000001 -0.000000 -0.000055 -0.000000  0.000958 -0.125168
  0C   2px       -0.000318  0.018103 -0.000000 -0.065443 -0.000002  0.000000
  0C   2py        0.000027  0.000000  0.001154  0.000001 -0.019971 -0.006002
  0C   1dz2      -0.003602 -0.000063 -0.006983 -0.000003  0.043968 -0.000406
  0C   1dxz      -0.000001  0.000070  0.000000 -0.001644 -0.000000 -0.000001
  0C   1dyz      -0.000000 -0.000000  0.000011  0.000000 -0.000074  0.004874
  0C   1dx2y2     0.006236  0.000109  0.012326  0.000005 -0.077695 -0.000234
  0C   1dxy       0.000026 -0.001454 -0.000000  0.034287  0.000001 -0.000000
  1O   1s        -0.684894 -0.709275 -0.029053 -0.238314  0.202506  0.000000
  1O   2s         0.030545  0.040773 -0.052768 -0.162352  0.495111  0.000001
  1O   3s         0.004911 -0.034151 -0.024715  0.219789  0.155912  0.000000
  1O   1pz        0.000001 -0.000071  0.000137  0.002218  0.000888 -0.364358
  1O   1px       -0.008999 -0.010123  0.034183  0.256940 -0.154228  0.000000
  1O   1py       -0.000013  0.001483 -0.002867 -0.046243 -0.018519 -0.017471
  1O   2pz       -0.000022  0.000003  0.000124  0.000011 -0.000889  0.027013
  1O   2px       -0.007835  0.001733  0.011733 -0.124885 -0.038330 -0.000000
  1O   2py        0.000453 -0.000063 -0.002594 -0.000231  0.018535  0.001295
  1O   1dz2      -0.001106 -0.002617  0.003685  0.030530  0.008203  0.000244
  1O   1dxz       0.000003  0.000036 -0.000081 -0.000653 -0.000146  0.040892
  1O   1dyz       0.000003 -0.000007  0.000005  0.000123  0.000009 -0.002927
  1O   1dx2y2     0.001971  0.004392 -0.006282 -0.050317 -0.014016  0.000141
  1O   1dxy      -0.000072 -0.000754  0.001690  0.013613  0.003054  0.001961
  2O   1s        -0.709350  0.684817 -0.029054  0.238305  0.202520  0.000000
  2O   2s         0.031956 -0.039676 -0.052768  0.162312  0.495122  0.000001
  2O   3s         0.003710  0.034302 -0.024714 -0.219800  0.155902  0.000000
  2O   1pz       -0.000002  0.000071  0.000137 -0.002218  0.000888 -0.364366
  2O   1px        0.009349 -0.009801 -0.034183  0.256930  0.154238 -0.000000
  2O   1py        0.000039 -0.001483 -0.002867  0.046244 -0.018518 -0.017471
  2O   2pz       -0.000022 -0.000004  0.000124 -0.000011 -0.000889  0.027012
  2O   2px        0.007770  0.002006 -0.011733 -0.124889  0.038323  0.000000
  2O   2py        0.000451  0.000079 -0.002594  0.000229  0.018535  0.001295
  2O   1dz2      -0.001197  0.002577  0.003685 -0.030530  0.008202  0.000244
  2O   1dxz      -0.000005  0.000036  0.000081 -0.000653  0.000146 -0.040894
  2O   1dyz       0.000002  0.000007  0.000005 -0.000123  0.000009 -0.002927
  2O   1dx2y2     0.002124 -0.004320 -0.006282  0.050318 -0.014015  0.000141
  2O   1dxy       0.000098 -0.000751 -0.001690  0.013612 -0.003054 -0.001961
                      6         7         8         9        10        11
                  -0.96763  -0.51951  -0.37123  -0.36756  -0.35755   0.15188
                   2.00000   2.00000   2.00000   2.00000   2.00000   0.00000
                  --------  --------  --------  --------  --------  --------
  0C   1s         0.030696  0.000002 -0.000000  0.000003 -0.284971 -0.060241
  0C   2s         0.132598 -0.000007 -0.000000  0.000010 -0.690000 -0.710459
  0C   3s         0.004256 -0.000000 -0.000000  0.000003 -0.240617 -3.209929
  0C   1pz        0.024717 -0.000000 -0.000002 -0.000000 -0.000066 -0.000093
  0C   1px       -0.000001  0.387370 -0.000001 -0.051385 -0.000004 -0.000001
  0C   1py       -0.515496  0.000000 -0.000000  0.000002  0.001373  0.001949
  0C   2pz        0.005805  0.000000 -0.000002 -0.000000 -0.000510  0.001870
  0C   2px       -0.000000 -0.118348  0.000000  0.016858  0.000001  0.000006
  0C   2py       -0.121064 -0.000000 -0.000000  0.000001  0.010634 -0.038993
  0C   1dz2      -0.027602  0.000001  0.000000 -0.000001  0.079149 -0.042385
  0C   1dxz       0.000000  0.000927 -0.014955 -0.000855 -0.000000 -0.000000
  0C   1dyz      -0.000462 -0.000000  0.000000  0.000000 -0.000012  0.000022
  0C   1dx2y2     0.038196 -0.000002 -0.000000  0.000002 -0.137341  0.073861
  0C   1dxy      -0.000001 -0.019331 -0.000717  0.017827  0.000000  0.000000
  1O   1s        -0.015743 -0.082987 -0.000000 -0.009993 -0.056256  0.087310
  1O   2s        -0.114007 -0.300024 -0.000000 -0.007760  0.133380  0.040547
  1O   3s        -0.055675 -0.359470  0.000000  0.006165  0.057903  1.891938
  1O   1pz        0.017500 -0.003159 -0.557078 -0.026402 -0.001979 -0.000924
  1O   1px       -0.009809 -0.423093  0.000001  0.081229 -0.503215  0.034883
  1O   1py       -0.364980  0.065876 -0.026705  0.550756  0.041259  0.019277
  1O   2pz       -0.001028 -0.001304 -0.341745 -0.016342 -0.001875 -0.002762
  1O   2px        0.016050 -0.072396  0.000000  0.022751 -0.393657 -0.254728
  1O   2py        0.021449  0.027184 -0.016382  0.340901  0.039093  0.057606
  1O   1dz2      -0.002157 -0.025097  0.000460  0.001207  0.003289 -0.010443
  1O   1dxz      -0.001972  0.000582  0.055516  0.002569  0.000171  0.000064
  1O   1dyz       0.000290 -0.000102 -0.005524 -0.000518 -0.000029  0.000011
  1O   1dx2y2     0.009760  0.041350  0.000265 -0.012864 -0.006304  0.018323
  1O   1dxy       0.041125 -0.012131  0.002661 -0.053586 -0.003569 -0.001325
  2O   1s        -0.015743  0.082985  0.000000  0.009995 -0.056255  0.087311
  2O   2s        -0.114008  0.300029  0.000000  0.007756  0.133381  0.040547
  2O   3s        -0.055676  0.359468 -0.000000 -0.006166  0.057905  1.891959
  2O   1pz        0.017501  0.003159  0.557074  0.026401 -0.001978 -0.000924
  2O   1px        0.009810 -0.423093  0.000002  0.081216  0.503219 -0.034883
  2O   1py       -0.364988 -0.065876  0.026705 -0.550753  0.041245  0.019277
  2O   2pz       -0.001028  0.001304  0.341743  0.016342 -0.001874 -0.002762
  2O   2px       -0.016050 -0.072395  0.000000  0.022740  0.393658  0.254730
  2O   2py        0.021448 -0.027183  0.016382 -0.340900  0.039084  0.057606
  2O   1dz2      -0.002157  0.025097 -0.000460 -0.001207  0.003290 -0.010443
  2O   1dxz       0.001972  0.000582  0.055516  0.002569 -0.000171 -0.000064
  2O   1dyz       0.000290  0.000102  0.005524  0.000518 -0.000029  0.000011
  2O   1dx2y2     0.009760 -0.041349 -0.000265  0.012864 -0.006305  0.018323
  2O   1dxy      -0.041127 -0.012131  0.002661 -0.053586  0.003568  0.001325
                     12        13        14        15        16        17
                   0.22618   0.22688   0.31573   0.71329   0.79417   0.79933
                   0.00000   0.00000   0.00000   0.00000   0.00000   0.00000
                  --------  --------  --------  --------  --------  --------
  0C   1s         0.000000 -0.007495  0.000001  0.220283  0.000001 -0.000025
  0C   2s         0.000004 -0.063407  0.000005 -4.076524 -0.000013  0.000532
  0C   3s        -0.000018  0.299358  0.000012 -1.585849 -0.000003  0.000117
  0C   1pz       -0.231261 -0.011117 -0.000000 -0.024224  1.142943 -0.000010
  0C   1px       -0.000000  0.000000  0.096493  0.000004  0.000000 -0.276109
  0C   1py       -0.011104  0.231537  0.000000  0.505132  0.054805  0.000200
  0C   2pz        1.693829  0.081726 -0.000000 -0.028665  1.555208 -0.000014
  0C   2px        0.000000  0.000002  3.240539 -0.000008  0.000000  0.288545
  0C   2py        0.081329 -1.702120  0.000001  0.597736  0.074573  0.000286
  0C   1dz2      -0.000114  0.022352  0.000000  0.020209 -0.003805 -0.000015
  0C   1dxz      -0.000001 -0.000000 -0.000665  0.000000 -0.000033  0.018257
  0C   1dyz       0.001348  0.000130 -0.000000 -0.001354  0.045710 -0.000001
  0C   1dx2y2    -0.000063 -0.036018 -0.000000 -0.063176 -0.002197  0.000009
  0C   1dxy      -0.000000  0.000001  0.013877 -0.000001 -0.000002 -0.380717
  1O   1s         0.000000 -0.007320 -0.062329 -0.020159 -0.000000  0.005356
  1O   2s        -0.000004  0.059214  0.003292  0.149055  0.000001 -0.029943
  1O   3s         0.000012 -0.197058 -2.874466  2.351052  0.000006  1.303405
  1O   1pz       -0.121328 -0.005915  0.000769  0.005111 -0.180536  0.015234
  1O   1px        0.000001 -0.018119 -0.155086  0.289744  0.000001  0.040369
  1O   1py       -0.005826  0.123199 -0.016044 -0.106587 -0.008657 -0.317670
  1O   2pz       -0.442561 -0.021365  0.003039  0.020917 -1.413193 -0.049730
  1O   2px        0.000001 -0.011479 -0.021245 -1.531825 -0.000004 -1.197636
  1O   2py       -0.021249  0.444973 -0.063363 -0.436176 -0.067763  1.037023
  1O   1dz2       0.000018  0.003449  0.001866 -0.024585 -0.000806 -0.009601
  1O   1dxz       0.030427  0.001482 -0.000303  0.001492 -0.073403  0.002419
  1O   1dyz      -0.000224 -0.000029  0.000059 -0.000297  0.009680 -0.000749
  1O   1dx2y2     0.000011 -0.006575 -0.001999  0.036408 -0.000465  0.001037
  1O   1dxy       0.001461 -0.030862  0.006323 -0.031110 -0.003520 -0.050445
  2O   1s         0.000000 -0.007320  0.062328 -0.020160 -0.000000 -0.005355
  2O   2s        -0.000004  0.059215 -0.003292  0.149060  0.000001  0.029858
  2O   3s         0.000012 -0.197054  2.874447  2.351083  0.000006 -1.303890
  2O   1pz       -0.121328 -0.005915 -0.000769  0.005111 -0.180480 -0.015231
  2O   1px       -0.000001  0.018118 -0.155088 -0.289743 -0.000001  0.040409
  2O   1py       -0.005826  0.123199  0.016044 -0.106585 -0.008654  0.317608
  2O   2pz       -0.442559 -0.021365 -0.003038  0.020918 -1.413385  0.049756
  2O   2px       -0.000001  0.011479 -0.021255  1.531845  0.000004 -1.197958
  2O   2py       -0.021249  0.444972  0.063361 -0.436188 -0.067772 -1.037560
  2O   1dz2       0.000018  0.003449 -0.001866 -0.024586 -0.000806  0.009604
  2O   1dxz      -0.030428 -0.001482 -0.000303 -0.001492  0.073395  0.002418
  2O   1dyz      -0.000224 -0.000029 -0.000059 -0.000297  0.009679  0.000749
  2O   1dx2y2     0.000011 -0.006575  0.001999  0.036409 -0.000465 -0.001050
  2O   1dxy      -0.001461  0.030863  0.006323  0.031110  0.003519 -0.050421
                     18        19        20        21        22        23
                   0.80390   0.80859   0.85156   1.22275   1.32501   1.33096
                   0.00000   0.00000   0.00000   0.00000   0.00000   0.00000
                  --------  --------  --------  --------  --------  --------
  0C   1s        -0.120684 -0.000000  0.000001  0.045096  0.013179 -0.000000
  0C   2s         2.638084  0.000000 -0.000024 -0.257628 -0.352116  0.000000
  0C   3s         0.565691  0.000000 -0.000004 -3.136362 -0.792007  0.000003
  0C   1pz       -0.048678  0.000091  0.000001 -0.001709  0.010846  0.233568
  0C   1px        0.000058  0.000000  0.492390 -0.000004 -0.000002 -0.000000
  0C   1py        1.015197  0.000004 -0.000013  0.035628 -0.226118  0.011202
  0C   2pz       -0.068310  0.000118  0.000001  0.008093 -0.073424 -1.488745
  0C   2px       -0.000067 -0.000000 -0.903007  0.000005  0.000001  0.000000
  0C   2py        1.424627  0.000006 -0.000016 -0.168757  1.530880 -0.071401
  0C   1dz2      -0.078514 -0.000000  0.000000 -0.265100  0.130490 -0.030344
  0C   1dxz      -0.000004  0.434787  0.009987 -0.000000  0.000000  0.000001
  0C   1dyz      -0.004169  0.000004  0.000000 -0.002436  0.028979  0.364445
  0C   1dx2y2     0.049251 -0.000000  0.000001  0.408476  0.376898 -0.017521
  0C   1dxy       0.000075  0.020850 -0.208257  0.000000 -0.000001  0.000000
  1O   1s        -0.001385  0.000000  0.013391 -0.212709 -0.020471  0.000000
  1O   2s        -0.222528  0.000000  0.049027 -2.026506 -0.499068  0.000002
  1O   3s        -1.186309 -0.000000 -2.332383  3.269700  0.931134 -0.000003
  1O   1pz        0.007568  0.356199  0.007853  0.007410 -0.033865 -0.710758
  1O   1px       -0.091785 -0.000000 -0.115130 -0.120774 -0.034725  0.000000
  1O   1py       -0.157825  0.017081 -0.163761 -0.154516  0.706065 -0.034088
  1O   2pz        0.064835 -1.153907 -0.024616 -0.010457  0.056850  1.176419
  1O   2px        0.788855  0.000000  2.459528 -0.145975 -0.156594  0.000000
  1O   2py       -1.352146 -0.055336  0.513310  0.218050 -1.185323  0.056422
  1O   1dz2       0.007859  0.000728  0.004122 -0.015627  0.022775 -0.004083
  1O   1dxz       0.003029  0.055435  0.001064  0.000254 -0.004932 -0.100453
  1O   1dyz      -0.000858 -0.008748 -0.000368 -0.000099  0.003780  0.049032
  1O   1dx2y2    -0.031471  0.000420 -0.014794  0.025008  0.039189 -0.002357
  1O   1dxy      -0.063173  0.002658 -0.022193 -0.005292  0.102835 -0.004818
  2O   1s        -0.001383 -0.000000 -0.013392 -0.212710 -0.020471  0.000000
  2O   2s        -0.222545 -0.000000 -0.049025 -2.026517 -0.499071  0.000002
  2O   3s        -1.185759  0.000000  2.332406  3.269730  0.931145 -0.000003
  2O   1pz        0.007574 -0.356227 -0.007853  0.007410 -0.033865 -0.710757
  2O   1px        0.091766 -0.000000 -0.115132  0.120777  0.034727 -0.000000
  2O   1py       -0.157948 -0.017083  0.163764 -0.154516  0.706063 -0.034088
  2O   2pz        0.064817  1.153688  0.024614 -0.010457  0.056851  1.176421
  2O   2px       -0.788331  0.000000  2.459542  0.145975  0.156597 -0.000000
  2O   2py       -1.351755  0.055325 -0.513280  0.218050 -1.185325  0.056422
  2O   1dz2       0.007855 -0.000728 -0.004122 -0.015628  0.022775 -0.004083
  2O   1dxz      -0.003030  0.055447  0.001064 -0.000254  0.004932  0.100454
  2O   1dyz      -0.000859  0.008750  0.000368 -0.000099  0.003780  0.049032
  2O   1dx2y2    -0.031470 -0.000421  0.014795  0.025009  0.039189 -0.002357
  2O   1dxy       0.063193  0.002659 -0.022195  0.005292 -0.102835  0.004818
                     24        25        26        27        28        29
                   1.37772   1.38006   1.59078   2.04964   2.56033   2.56046
                   0.00000   0.00000   0.00000   0.00000   0.00000   0.00000
                  --------  --------  --------  --------  --------  --------
  0C   1s         0.006562 -0.000001  0.000001 -0.033937  0.000000 -0.000000
  0C   2s        -0.255667  0.000022 -0.000002  6.679121 -0.000001  0.000000
  0C   3s        -0.208937  0.000018 -0.000007  1.633512 -0.000000  0.000000
  0C   1pz        0.008325  0.203378 -0.000000  0.007610 -0.000000  0.000001
  0C   1px       -0.000001 -0.000000 -0.088375  0.000003 -0.006737  0.000038
  0C   1py       -0.173273  0.009767  0.000000 -0.158694  0.000001  0.000000
  0C   2pz       -0.016540 -0.455768 -0.000000 -0.002663 -0.000000  0.000000
  0C   2px        0.000000  0.000000 -3.282687  0.000005  0.001224 -0.000006
  0C   2py        0.344289 -0.021888  0.000002  0.055520  0.000000  0.000000
  0C   1dz2      -0.736513  0.064082 -0.000000  0.300780  0.000002  0.000000
  0C   1dxz       0.000000  0.000001  0.002048  0.000000  0.006684 -0.154859
  0C   1dyz      -0.076525 -0.769053 -0.000000 -0.000660  0.000000 -0.000002
  0C   1dx2y2    -0.315142  0.036989  0.000000 -0.534691  0.000001  0.000000
  0C   1dxy      -0.000001  0.000000 -0.042704 -0.000001 -0.157273 -0.006554
  1O   1s         0.002216 -0.000000 -0.213831 -0.160940  0.002155 -0.000012
  1O   2s        -0.120589  0.000010 -1.566711 -0.553665 -0.007296  0.000041
  1O   3s         0.298670 -0.000025  5.250687 -3.344518  0.020331 -0.000114
  1O   1pz       -0.014009 -0.358224 -0.000625 -0.004738 -0.004615  0.107331
  1O   1px       -0.015156  0.000001 -0.381891  0.775633  0.001401 -0.000008
  1O   1py        0.291604 -0.017203  0.013039  0.098800  0.108648  0.004544
  1O   2pz        0.012891  0.365211 -0.005004  0.008652 -0.000089  0.001924
  1O   2px       -0.084315  0.000007 -0.091484  1.271952 -0.010977  0.000061
  1O   2py       -0.268311  0.017538  0.104340 -0.180411  0.002077  0.000081
  1O   1dz2      -0.119035  0.010681  0.011406  0.017007  0.614023  0.055594
  1O   1dxz      -0.002919 -0.070819  0.000369 -0.003516 -0.000345  0.007496
  1O   1dyz      -0.012645 -0.128184 -0.000046 -0.000184  0.064173 -0.708958
  1O   1dx2y2    -0.056699  0.006166 -0.020722 -0.033293  0.353942  0.032100
  1O   1dxy       0.060760 -0.003401 -0.007686  0.073326  0.008064  0.000315
  2O   1s         0.002216 -0.000000  0.213829 -0.160940 -0.002155  0.000012
  2O   2s        -0.120590  0.000010  1.566700 -0.553671  0.007297 -0.000041
  2O   3s         0.298675 -0.000025 -5.250669 -3.344566 -0.020330  0.000114
  2O   1pz       -0.014009 -0.358223  0.000625 -0.004738  0.004615 -0.107332
  2O   1px        0.015156 -0.000001 -0.381895 -0.775633  0.001401 -0.000008
  2O   1py        0.291603 -0.017203 -0.013038  0.098799 -0.108649 -0.004544
  2O   2pz        0.012891  0.365211  0.005004  0.008652  0.000089 -0.001924
  2O   2px        0.084317 -0.000007 -0.091469 -1.271982 -0.010977  0.000061
  2O   2py       -0.268311  0.017538 -0.104340 -0.180412 -0.002078 -0.000081
  2O   1dz2      -0.119035  0.010681 -0.011406  0.017010 -0.614022 -0.055594
  2O   1dxz       0.002919  0.070819  0.000369  0.003516 -0.000345  0.007497
  2O   1dyz      -0.012645 -0.128184  0.000046 -0.000184 -0.064173  0.708957
  2O   1dx2y2    -0.056699  0.006166  0.020721 -0.033298 -0.353941 -0.032100
  2O   1dxy      -0.060761  0.003401 -0.007686 -0.073327  0.008065  0.000315
                     30        31        32        33        34        35
                   2.95685   2.96382   3.27737   3.30902   3.55252   3.55253
                   0.00000   0.00000   0.00000   0.00000   0.00000   0.00000
                  --------  --------  --------  --------  --------  --------
  0C   1s        -0.000001 -0.000000 -0.440638  0.000077 -0.000013  0.000542
  0C   2s        -0.000013  0.000000 -9.225262  0.001489  0.000136 -0.005970
  0C   3s        -0.000004 -0.000000 -1.231300  0.000193 -0.000354  0.014534
  0C   1pz       -0.000000 -0.000000 -0.007287  0.000001  0.093041  0.006718
  0C   1px        0.086727  0.000000  0.000023  0.098456 -0.000000  0.000000
  0C   1py        0.000000 -0.000000  0.151945 -0.000025  0.006727 -0.092785
  0C   2pz       -0.000000 -0.000001  0.000399 -0.000000  0.020309  0.001476
  0C   2px       -0.034725 -0.000000 -0.000020 -0.093472 -0.000000  0.000000
  0C   2py        0.000001 -0.000000 -0.008317  0.000001  0.001473 -0.020444
  0C   1dz2      -0.000000 -0.000000  0.712684 -0.000119 -0.108088  0.902816
  0C   1dxz      -0.017842 -0.373653  0.000002  0.011134  0.000001  0.000000
  0C   1dyz       0.000000  0.000000 -0.000138  0.000000  1.031628  0.124548
  0C   1dx2y2     0.000001 -0.000000 -1.237253  0.000206 -0.061880  0.499571
  0C   1dxy       0.372097 -0.017916 -0.000037 -0.232178  0.000000 -0.000001
  1O   1s        -0.012181 -0.000000 -0.002952 -0.007555  0.000037 -0.001523
  1O   2s        -0.076548 -0.000000  2.565200 -0.462903 -0.000441  0.018261
  1O   3s         0.140475  0.000001  3.098514  2.453563  0.000391 -0.015974
  1O   1pz        0.015331  0.318008 -0.004805 -0.006262  0.024050  0.001691
  1O   1px        0.024535  0.000000 -0.672689 -0.057140 -0.000013  0.000486
  1O   1py       -0.319739  0.015248  0.100200  0.130579  0.001715 -0.023019
  1O   2pz       -0.011059 -0.231340 -0.006835 -0.001680 -0.045195 -0.003251
  1O   2px       -0.072216 -0.000000 -1.454255 -1.527620 -0.000129  0.005242
  1O   2py        0.230653 -0.011092  0.142532  0.035036 -0.003261  0.044808
  1O   1dz2       0.031814 -0.005840 -0.357580 -0.508752  0.096025 -0.793524
  1O   1dxz       0.032916  0.690168  0.004172  0.001202  0.013647  0.000967
  1O   1dyz       0.006860  0.070157 -0.000458 -0.001601 -0.918974 -0.110950
  1O   1dx2y2     0.087633 -0.003372  0.609802  0.847884  0.055573 -0.463600
  1O   1dxy      -0.686495  0.033092 -0.087004 -0.025057  0.000978 -0.013231
  2O   1s         0.012181  0.000000 -0.002948  0.007556  0.000037 -0.001523
  2O   2s         0.076548  0.000000  2.565383  0.462059 -0.000441  0.018261
  2O   3s        -0.140460 -0.000001  3.097723 -2.454548  0.000391 -0.015973
  2O   1pz       -0.015331 -0.318010 -0.004803  0.006264  0.024051  0.001691
  2O   1px        0.024536  0.000000  0.672668 -0.057358  0.000013 -0.000486
  2O   1py        0.319741 -0.015248  0.100158 -0.130613  0.001715 -0.023020
  2O   2pz        0.011059  0.231343 -0.006835  0.001682 -0.045195 -0.003251
  2O   2px       -0.072210 -0.000000  1.453758 -1.528086  0.000129 -0.005241
  2O   2py       -0.230654  0.011093  0.142522 -0.035080 -0.003261  0.044808
  2O   1dz2      -0.031816  0.005840 -0.357413  0.508870  0.096026 -0.793528
  2O   1dxz       0.032916  0.690169 -0.004172  0.001203 -0.013648 -0.000967
  2O   1dyz      -0.006860 -0.070157 -0.000458  0.001601 -0.918979 -0.110950
  2O   1dx2y2    -0.087631  0.003372  0.609523 -0.848086  0.055574 -0.463602
  2O   1dxy      -0.686496  0.033092  0.086998 -0.025083 -0.000978  0.013231
                     36        37        38        39        40        41
                   4.13616   4.14836   4.49069   4.49070   6.33694   7.11252
                   0.00000   0.00000   0.00000   0.00000   0.00000   0.00000
                  --------  --------  --------  --------  --------  --------
  0C   1s         0.000000  0.000000  0.000013 -0.020564 -0.621341 -0.000008
  0C   2s        -0.000022 -0.000000 -0.000349  0.554229 20.709383  0.000603
  0C   3s        -0.000002  0.000000  0.000106 -0.168039  0.373005  0.000023
  0C   1pz       -0.000001 -0.000011  2.508631 -0.118467  0.019713  0.000001
  0C   1px       -0.069127  0.000003  0.000000 -0.000003  0.000056 -5.654589
  0C   1py        0.000011 -0.000001  0.118718  2.503465 -0.411073 -0.000010
  0C   2pz       -0.000000 -0.000002  0.763421 -0.036423 -0.004610 -0.000000
  0C   2px       -0.219943  0.000008  0.000000 -0.000002 -0.000004 -0.039435
  0C   2py        0.000002 -0.000000  0.036123  0.769587  0.096128  0.000002
  0C   1dz2       0.000002  0.000000  0.016498 -0.053352 -3.165366 -0.000075
  0C   1dxz       0.127978  2.682760 -0.000005  0.000000  0.000000 -0.014237
  0C   1dyz      -0.000000 -0.000002 -0.197771  0.018885 -0.000360  0.000000
  0C   1dx2y2    -0.000007  0.000000  0.009198  0.487947  5.475078  0.000130
  0C   1dxy      -2.666659  0.128750 -0.000000 -0.000006 -0.000010  0.296889
  1O   1s         0.017111 -0.000001 -0.000015  0.024564  0.130283  0.176697
  1O   2s        -0.230458  0.000008  0.000245 -0.389168 -9.566547  3.787275
  1O   3s         0.429825 -0.000016 -0.000058  0.091782 -3.587526  2.236371
  1O   1pz       -0.071119 -1.499727 -0.536956  0.026436  0.016771 -0.001363
  1O   1px        0.057740 -0.000002  0.000024 -0.037487  1.672826 -1.771853
  1O   1py        1.481893 -0.071974 -0.025397 -0.558343 -0.349732  0.028421
  1O   2pz       -0.030944 -0.636477 -1.049507  0.049914  0.013836 -0.002073
  1O   2px       -0.025179  0.000001  0.000006 -0.010049  1.829991 -1.246385
  1O   2py        0.644792 -0.030546 -0.049662 -1.054681 -0.288530  0.043221
  1O   1dz2      -0.063829  0.012026 -0.001312 -0.078878 -0.287214 -0.268036
  1O   1dxz       0.044687  0.932057  1.159354 -0.054615 -0.000028  0.002790
  1O   1dyz      -0.013818 -0.144429  0.016349 -0.001472  0.001155  0.000433
  1O   1dx2y2    -0.176811  0.006948 -0.000853  0.105765  0.521494  0.473262
  1O   1dxy      -0.931141  0.044731  0.054867  1.154172  0.000582 -0.058189
  2O   1s        -0.017112  0.000001 -0.000015  0.024564  0.130294 -0.176688
  2O   2s         0.230475 -0.000008  0.000245 -0.389170 -9.566490 -3.787787
  2O   3s        -0.429814  0.000016 -0.000058  0.091774 -3.587525 -2.236618
  2O   1pz        0.071120  1.499739 -0.536970  0.026436  0.016771  0.001364
  2O   1px        0.057741 -0.000002 -0.000024  0.037489 -1.672733 -1.771941
  2O   1py       -1.481904  0.071975 -0.025397 -0.558358 -0.349733 -0.028437
  2O   2pz        0.030945  0.636483 -1.049517  0.049914  0.013836  0.002073
  2O   2px       -0.025173  0.000001 -0.000006  0.010046 -1.829963 -1.246497
  2O   2py       -0.644797  0.030546 -0.049663 -1.054691 -0.288530 -0.043237
  2O   1dz2       0.063831 -0.012026 -0.001312 -0.078878 -0.287225  0.268016
  2O   1dxz       0.044687  0.932045 -1.159364  0.054616  0.000028  0.002790
  2O   1dyz       0.013818  0.144430  0.016349 -0.001472  0.001155 -0.000433
  2O   1dx2y2     0.176810 -0.006949 -0.000853  0.105764  0.521514 -0.473227
  2O   1dxy      -0.931129  0.044730 -0.054867 -1.154183 -0.000577 -0.058189

MULLIKEN ATOMIC CHARGES
-----------------------
   0 C :    0.107412
   1 O :   -0.053717
   2 O :   -0.053695
Sum of atomic charges:   -0.0000000

LOEWDIN ATOMIC CHARGES
----------------------
   0 C :   -0.816766
   1 O :    0.408380
   2 O :    0.408386

  Mayer bond orders larger than 0.100000
B(  0-C ,  1-O ) :   1.8570 B(  0-C ,  2-O ) :   1.8570 B(  1-O ,  2-O ) :   1.3030

FINAL SINGLE POINT ENERGY      -182.807447619977

DIPOLE MOMENT
-------------

Method             : SCF
Type of density    : Electron Density
Multiplicity       :   1
Irrep              :   0
Energy             :  -182.8074476199772107 Eh
Relativity type    :
Basis              : AO
                                X                 Y                 Z
Electronic contribution:     -0.000013724       0.086127495      -0.004130256
Nuclear contribution   :      0.000000017      -0.000309633       0.000014848
                        -----------------------------------------
Total Dipole Moment    :     -0.000013707       0.085817862      -0.004115407
                        -----------------------------------------
Magnitude (a.u.)       :      0.085916484
Magnitude (Debye)      :      0.218382347

VIBRATIONAL FREQUENCIES
-----------------------

Scaling factor for frequencies =  1.000000000  (already applied!)

     0:       0.00 cm**-1
     1:       0.00 cm**-1
     2:       0.00 cm**-1
     3:       0.00 cm**-1
     4:       0.00 cm**-1
     5:       0.00 cm**-1
     6:   -6469.09 cm**-1  ***imaginary mode***
     7:    7367.76 cm**-1
     8:   13990.41 cm**-1

IR SPECTRUM
-----------

 Mode   freq       eps      Int      T**2         TX        TY        TZ
       cm**-1   L/(mol*cm) km/mol    a.u.
----------------------------------------------------------------------------
  7:   7367.76   0.000018    0.09  0.000001  (-0.000001  0.000880 -0.000042)
  8:  13990.41   0.260581  1316.87  0.005812  (-0.076239 -0.000000  0.000000)

--------------------------
THERMOCHEMISTRY AT 298.15K
--------------------------

Temperature         ...   298.15 K
Pressure            ...     1.00 atm
Total Mass          ...    44.01 AMU
Quasi RRHO          ...     True
Cut-Off Frequency   ...     1.00 cm^-1

Throughout the following assumptions are being made:
  (1) The electronic state is orbitally nondegenerate
  (2) There are no thermally accessible electronically excited states
  (3) Hindered rotations indicated by low frequency modes are not
      treated as such but are treated as vibrations and this may
      cause some error
  (4) All equations used are the standard statistical mechanics
      equations for an ideal gas
  (5) All vibrations are strictly harmonic

freq.    7367.76  E(vib)   ...       0.00
freq.   13990.41  E(vib)   ...       0.00

------------
INNER ENERGY
------------

The inner energy is: U= E(el) + E(ZPE) + E(vib) + E(rot) + E(trans)
    E(el)   - is the total energy from the electronic structure calculation
              = E(kin-el) + E(nuc-el) + E(el-el) + E(nuc-nuc)
    E(ZPE)  - the the zero temperature vibrational energy from the frequency calculation
    E(vib)  - the the finite temperature correction to E(ZPE) due to population
              of excited vibrational states
    E(rot)  - is the rotational thermal energy
    E(trans)- is the translational thermal energy

Summary of contributions to the inner energy U:
Electronic energy                ...   -182.80744762 Eh
Zero point energy                ...      0.04865749 Eh      30.53 kcal/mol
Thermal vibrational correction   ...      0.00000000 Eh       0.00 kcal/mol
Thermal rotational correction    ...      0.00141627 Eh       0.89 kcal/mol
Thermal translational correction ...      0.00141627 Eh       0.89 kcal/mol
-----------------------------------------------------------------------
Total thermal energy                   -182.75595758 Eh

Summary of corrections to the electronic energy:
(perhaps to be used in another calculation)
Total thermal correction                  0.00283254 Eh       1.78 kcal/mol
Non-thermal (ZPE) correction              0.04865749 Eh      30.53 kcal/mol
-----------------------------------------------------------------------
Total correction                          0.05149004 Eh      32.31 kcal/mol

--------
ENTHALPY
--------

The enthalpy is H = U + kB*T
                kB is Boltzmann's constant
Total thermal energy              ...   -182.75595758 Eh
Thermal Enthalpy correction       ...      0.00094421 Eh       0.59 kcal/mol
-----------------------------------------------------------------------
Total Enthalpy                    ...   -182.75501338 Eh

Note: Rotational entropy computed according to Herzberg
Infrared and Raman Spectra, Chapter V,1, Van Nostrand Reinhold, 1945
Point Group:  C2v, Symmetry Number:   2
Rotational constants in cm-1:  1309.102551     1.390230     1.388755

Vibrational entropy computed according to the QRRHO of S. Grimme
Chem.Eur.J. 2012 18 9955 using a reference frequency of 100.0 cm-1

-------
ENTROPY
-------

The entropy contributions are T*S = T*(S(el)+S(vib)+S(rot)+S(trans))
     S(el)   - electronic entropy
     S(vib)  - vibrational entropy
     S(rot)  - rotational entropy
     S(trans)- translational entropy
The entropies will be listed as multiplied by the temperature to get
units of energy

Electronic entropy                ...      0.00000000 Eh      0.00 kcal/mol
Vibrational entropy               ...     -0.00000000 Eh     -0.00 kcal/mol
Rotational entropy                ...      0.00515754 Eh      3.24 kcal/mol
Translational entropy             ...      0.01770880 Eh     11.11 kcal/mol
-----------------------------------------------------------------------
Final entropy term                ...      0.02286634 Eh     14.35 kcal/mol

In case the symmetry of your molecule has not been determined correctly
or in case you have a reason to use a different symmetry number we print
out the resulting rotational entropy values for sn=1,12:

 non-linear molecules -----------------------------------
|  sn= 1 | S(rot)=       0.00581199 Eh      3.65 kcal/mol|
|  sn= 2 | S(rot)=       0.00515754 Eh      3.24 kcal/mol|
|  sn= 3 | S(rot)=       0.00477470 Eh      3.00 kcal/mol|
|  sn= 4 | S(rot)=       0.00450308 Eh      2.83 kcal/mol|
|  sn= 5 | S(rot)=       0.00429239 Eh      2.69 kcal/mol|
|  sn= 6 | S(rot)=       0.00412025 Eh      2.59 kcal/mol|
|  sn= 7 | S(rot)=       0.00397470 Eh      2.49 kcal/mol|
|  sn= 8 | S(rot)=       0.00384862 Eh      2.42 kcal/mol|
|  sn= 9 | S(rot)=       0.00373742 Eh      2.35 kcal/mol|
|  sn=10 | S(rot)=       0.00363794 Eh      2.28 kcal/mol|
|  sn=11 | S(rot)=       0.00354795 Eh      2.23 kcal/mol|
|  sn=12 | S(rot)=       0.00346579 Eh      2.17 kcal/mol|
 linear molecules ---------------------------------------
|  Dinfh | S(rot)=       0.00501573 Eh      3.15 kcal/mol|
|  Cinfv | S(rot)=       0.00567019 Eh      3.56 kcal/mol|
 --------------------------------------------------------

-------------------
GIBBS FREE ENERGY
-------------------

The Gibbs free energy is G = H - T*S

Total enthalpy                    ...   -182.75501338 Eh
Total entropy correction          ...     -0.02286634 Eh    -14.35 kcal/mol
-----------------------------------------------------------------------
Final Gibbs free energy         ...   -182.77787971 Eh

For completeness - the Gibbs free energy minus the electronic energy
G-E(el)                           ...      0.02956791 Eh     18.55 kcal/mol

                             ****ORCA TERMINATED NORMALLY****
TOTAL RUN TIME: 0 days 0 hours 0 minutes 14 seconds 966 msec
