                         Program Version 6.0.1  -  RELEASE   -
|  1> ! B3LYP def2-SVP TightSCF
|  2>
|  3> * xyz 0 1
|  4>  C     -0.0000056029     0.0000000262    -0.0000000052
|  5>  O      0.7166779942    -0.0000000013     0.0000000096
|  6>  O     -0.7166738598    -0.0000000153     0.0000000033
|  7> *
|  8>
|  9>                          ****END OF INPUT****

CARTESIAN COORDINATES (ANGSTROEM)
---------------------------------
  C     -0.000006    0.000000   -0.000000
  O      0.716678   -0.000000    0.000000
  O     -0.716674   -0.000000    0.000000

 Total Charge           Charge          ....    0
 Multiplicity           Mult            ....    1
 Number of Electrons    NEL             ....   22
 Basis Dimension        Dim             ....   42

ORBITAL ENERGIES
----------------

  NO   OCC          E(Eh)            E(eV)
   0   2.0000     -19.127767      -520.4930
   1   2.0000     -19.127569      -520.4876
   2   2.0000     -10.408804      -283.2380
   3   2.0000      -1.301391       -35.4126
   4   2.0000      -1.239918       -33.7399
   5   2.0000      -0.806999       -21.9596
   6   2.0000      -0.806999       -21.9596
   7   2.0000      -0.514389       -13.9972
   8   2.0000      -0.434604       -11.8262
   9   2.0000      -0.371258       -10.1025
  10   2.0000      -0.371258       -10.1025
  11   0.0000       0.143575         3.9069
  12   0.0000       0.259455         7.0601
  13   0.0000       0.259455         7.0601
  14   0.0000       0.327093         8.9007
  15   0.0000       0.635655        17.2970

MULLIKEN ATOMIC CHARGES
-----------------------
   0 C :    0.149083
   1 O :   -0.074566
   2 O :   -0.074518
Sum of atomic charges:   -0.0000000

LOEWDIN ATOMIC CHARGES
----------------------
   0 C :   -0.671319
   1 O :    0.335647
   2 O :    0.335673

  Mayer bond orders larger than 0.100000
B(  0-C ,  1-O ) :   2.2154 B(  0-C ,  2-O ) :   2.2155 B(  1-O ,  2-O ) :   0.7980

FINAL SINGLE POINT ENERGY      -185.635814586784

DIPOLE MOMENT
-------------

Method             : SCF
Type of density    : Electron Density
Multiplicity       :   1
Irrep              :   0
Energy             :  -185.6358145867843632 Eh
Relativity type    :
Basis              : AO
                                X                 Y                 Z
Electronic contribution:     -0.000051348       0.000000063      -0.000000021
Nuclear contribution   :      0.000000062      -0.000000000       0.000000000
                        -----------------------------------------
Total Dipole Moment    :     -0.000051286       0.000000063      -0.000000021
                        -----------------------------------------
Magnitude (a.u.)       :      0.000051286
Magnitude (Debye)      :      0.000130359

Rotational constants in cm-1:             0.000000             1.025719             1.025719
Rotational constants in MHz :             0.000000         30750.284356         30750.284356

                             ****ORCA TERMINATED NORMALLY****
TOTAL RUN TIME: 0 days 0 hours 0 minutes 1 seconds 670 msec
