                         Program Version 6.0.1  -  RELEASE   -
|  1> ! B3LYP def2-SVP TightSCF
|  2>
|  3> * xyz 0 1
|  4>  C     -0.0000014030    -0.1611117541     0.0077260828
|  5>  O      0.6155937158     0.0524008435    -0.0025128678
|  6>  O     -0.6155923140     0.0523980485    -0.0025127435
|  7> *
|  8>
|  9>                          ****END OF INPUT****

CARTESIAN COORDINATES (ANGSTROEM)
---------------------------------
  C     -0.000001   -0.161112    0.007726
  O      0.615594    0.052401   -0.002513
  O     -0.615592    0.052398   -0.002513

 Total Charge           Charge          ....    0
 Multiplicity           Mult            ....    1
 Number of Electrons    NEL             ....   22
 Basis Dimension        Dim             ....   42

ORBITAL ENERGIES
----------------

  NO   OCC          E(Eh)            E(eV)
   0   2.0000     -19.158479      -521.3287
   1   2.0000     -19.158246      -521.3224
   2   2.0000     -10.587056      -288.0884
   3   2.0000      -1.299299       -35.3557
   4   2.0000      -1.271256       -34.5926
   5   2.0000      -0.923554       -25.1312
   6   2.0000      -0.891729       -24.2652
   7   2.0000      -0.512562       -13.9475
   8   2.0000      -0.399370       -10.8674
   9   2.0000      -0.348925        -9.4947
  10   2.0000      -0.263927        -7.1818
  11   0.0000       0.120414         3.2766
  12   0.0000       0.226624         6.1667
  13   0.0000       0.246360         6.7038
  14   0.0000       0.308433         8.3929
  15   0.0000       0.468843        12.7579

MULLIKEN ATOMIC CHARGES
-----------------------
   0 C :   -0.272797
   1 O :    0.136388
   2 O :    0.136409
Sum of atomic charges:   -0.0000000

LOEWDIN ATOMIC CHARGES
----------------------
   0 C :   -0.694593
   1 O :    0.347293
   2 O :    0.347300

  Mayer bond orders larger than 0.100000
B(  0-C ,  1-O ) :   2.2884 B(  0-C ,  2-O ) :   2.2884 B(  1-O ,  2-O ) :   0.5857

FINAL SINGLE POINT ENERGY      -183.768590910762

DIPOLE MOMENT
-------------

Method             : SCF
Type of density    : Electron Density
Multiplicity       :   1
Irrep              :   0
Energy             :  -183.7685909107615601 Eh
Relativity type    :
Basis              : AO
                                X                 Y                 Z
Electronic contribution:     -0.000016991      -0.428851672       0.020565905
Nuclear contribution   :      0.000000017       0.001723598      -0.000082655
                        -----------------------------------------
Total Dipole Moment    :     -0.000016974      -0.427128074       0.020483251
                        -----------------------------------------
Magnitude (a.u.)       :      0.427618937
Magnitude (Debye)      :      1.086920960

Rotational constants in cm-1:            42.247157             1.390230             1.345939
Rotational constants in MHz :       1266537.915409         41678.051151         40350.242906

                             ****ORCA TERMINATED NORMALLY****
TOTAL RUN TIME: 0 days 0 hours 0 minutes 2 seconds 1 msec
